# Initialisation file of the particles

2210  atoms
229  bonds
198  angles
197  dihedrals

10  atom types
3  bond types
1  angle types
1  dihedral types

0.0000   500.0000 xlo xhi 
0.0000   500.0000 ylo yhi 
0.0000   500.0000 zlo zhi

Atom Type Labels

1    A
2    U
3    M
4    N
5    P
6    PU
7    NA
8    NM
9    NU
10    HP

Bond Type Labels

1    Normal
2    MM
3    PolyPromoter

Angle Type Labels

1    Normal

Dihedral Type Labels

1    Normal

Masses

1    1.00 
2    1.00 
3    1.00 
4    1.00 
5    1.00 
6    1.00 
7    1.00 
8    1.00 
9    1.00 
10    1.00 

Atoms

  1  1  A  0.0  0.0  0.0
  2  1  M  1.2  1.2  1.2
  3  1  U  2.4  2.4  2.4
  4  1  A  3.5999999999999996  3.5999999999999996  3.5999999999999996
  5  1  U  4.8  4.8  4.8
  6  1  M  6.0  6.0  6.0
  7  1  A  7.199999999999999  7.199999999999999  7.199999999999999
  8  1  U  8.4  8.4  8.4
  9  1  U  9.6  9.6  9.6
  10  1  U  10.799999999999999  10.799999999999999  10.799999999999999
  11  1  M  12.0  12.0  12.0
  12  1  M  13.2  13.2  13.2
  13  1  A  14.399999999999999  14.399999999999999  14.399999999999999
  14  1  M  15.6  15.6  15.6
  15  1  A  16.8  16.8  16.8
  16  1  A  18.0  18.0  18.0
  17  1  M  19.2  19.2  19.2
  18  1  U  20.4  20.4  20.4
  19  1  U  21.599999999999998  21.599999999999998  21.599999999999998
  20  1  M  22.8  22.8  22.8
  21  1  M  24.0  24.0  24.0
  22  1  U  25.2  25.2  25.2
  23  1  M  26.4  26.4  26.4
  24  1  M  27.599999999999998  27.599999999999998  27.599999999999998
  25  1  M  28.799999999999997  28.799999999999997  28.799999999999997
  26  1  M  30.0  30.0  30.0
  27  1  A  31.2  31.2  31.2
  28  1  M  32.4  32.4  32.4
  29  1  U  33.6  33.6  33.6
  30  1  A  34.8  34.8  34.8
  31  1  A  36.0  36.0  36.0
  32  1  U  37.199999999999996  37.199999999999996  37.199999999999996
  33  1  A  38.4  38.4  38.4
  34  1  A  39.6  39.6  39.6
  35  1  M  40.8  40.8  40.8
  36  1  A  42.0  42.0  42.0
  37  1  M  43.199999999999996  43.199999999999996  43.199999999999996
  38  1  M  44.4  44.4  44.4
  39  1  A  45.6  45.6  45.6
  40  1  M  46.8  46.8  46.8
  41  1  U  48.0  48.0  48.0
  42  1  U  49.199999999999996  49.199999999999996  49.199999999999996
  43  1  M  50.4  50.4  50.4
  44  1  M  51.6  51.6  51.6
  45  1  M  52.8  52.8  52.8
  46  1  M  54.0  54.0  54.0
  47  1  U  55.199999999999996  55.199999999999996  55.199999999999996
  48  1  M  56.4  56.4  56.4
  49  1  U  57.599999999999994  57.599999999999994  57.599999999999994
  50  1  U  58.8  58.8  58.8
  51  1  A  60.0  60.0  60.0
  52  1  A  61.199999999999996  61.199999999999996  61.199999999999996
  53  1  A  62.4  62.4  62.4
  54  1  M  63.599999999999994  63.599999999999994  63.599999999999994
  55  1  M  64.8  64.8  64.8
  56  1  M  66.0  66.0  66.0
  57  1  U  67.2  67.2  67.2
  58  1  U  68.39999999999999  68.39999999999999  68.39999999999999
  59  1  A  69.6  69.6  69.6
  60  1  M  70.8  70.8  70.8
  61  1  M  72.0  72.0  72.0
  62  1  A  73.2  73.2  73.2
  63  1  A  74.39999999999999  74.39999999999999  74.39999999999999
  64  1  M  75.6  75.6  75.6
  65  1  A  76.8  76.8  76.8
  66  1  M  78.0  78.0  78.0
  67  1  A  79.2  79.2  79.2
  68  1  A  80.39999999999999  80.39999999999999  80.39999999999999
  69  1  U  81.6  81.6  81.6
  70  1  M  82.8  82.8  82.8
  71  1  A  84.0  84.0  84.0
  72  1  A  85.2  85.2  85.2
  73  1  A  86.39999999999999  86.39999999999999  86.39999999999999
  74  1  A  87.6  87.6  87.6
  75  1  A  88.8  88.8  88.8
  76  1  U  90.0  90.0  90.0
  77  1  M  91.2  91.2  91.2
  78  1  M  92.39999999999999  92.39999999999999  92.39999999999999
  79  1  A  93.6  93.6  93.6
  80  1  A  94.8  94.8  94.8
  81  1  M  96.0  96.0  96.0
  82  1  A  97.2  97.2  97.2
  83  1  M  98.39999999999999  98.39999999999999  98.39999999999999
  84  1  U  99.6  99.6  99.6
  85  1  U  100.8  100.8  100.8
  86  1  A  102.0  102.0  102.0
  87  1  A  103.2  103.2  103.2
  88  1  M  104.39999999999999  104.39999999999999  104.39999999999999
  89  1  U  105.6  105.6  105.6
  90  1  U  106.8  106.8  106.8
  91  1  M  108.0  108.0  108.0
  92  1  U  109.2  109.2  109.2
  93  1  M  110.39999999999999  110.39999999999999  110.39999999999999
  94  1  M  111.6  111.6  111.6
  95  1  U  112.8  112.8  112.8
  96  1  A  114.0  114.0  114.0
  97  1  U  115.19999999999999  115.19999999999999  115.19999999999999
  98  1  M  116.39999999999999  116.39999999999999  116.39999999999999
  99  1  U  117.6  117.6  117.6
  100  1  U  118.8  118.8  118.8
  101  1  M  120.0  120.0  120.0
  102  1  M  121.19999999999999  121.19999999999999  121.19999999999999
  103  1  M  122.39999999999999  122.39999999999999  122.39999999999999
  104  1  A  123.6  123.6  123.6
  105  1  M  124.8  124.8  124.8
  106  1  U  126.0  126.0  126.0
  107  1  M  127.19999999999999  127.19999999999999  127.19999999999999
  108  1  A  128.4  128.4  128.4
  109  1  A  129.6  129.6  129.6
  110  1  U  130.79999999999998  130.79999999999998  130.79999999999998
  111  1  M  132.0  132.0  132.0
  112  1  A  133.2  133.2  133.2
  113  1  U  134.4  134.4  134.4
  114  1  M  135.6  135.6  135.6
  115  1  M  136.79999999999998  136.79999999999998  136.79999999999998
  116  1  M  138.0  138.0  138.0
  117  1  M  139.2  139.2  139.2
  118  1  U  140.4  140.4  140.4
  119  1  A  141.6  141.6  141.6
  120  1  U  142.79999999999998  142.79999999999998  142.79999999999998
  121  1  M  144.0  144.0  144.0
  122  1  M  145.2  145.2  145.2
  123  1  U  146.4  146.4  146.4
  124  1  A  147.6  147.6  147.6
  125  1  U  148.79999999999998  148.79999999999998  148.79999999999998
  126  1  A  150.0  150.0  150.0
  127  1  A  151.2  151.2  151.2
  128  1  U  152.4  152.4  152.4
  129  1  M  153.6  153.6  153.6
  130  1  M  154.79999999999998  154.79999999999998  154.79999999999998
  131  1  M  156.0  156.0  156.0
  132  1  U  157.2  157.2  157.2
  133  1  A  158.4  158.4  158.4
  134  1  U  159.6  159.6  159.6
  135  1  M  160.79999999999998  160.79999999999998  160.79999999999998
  136  1  U  162.0  162.0  162.0
  137  1  M  163.2  163.2  163.2
  138  1  A  164.4  164.4  164.4
  139  1  U  165.6  165.6  165.6
  140  1  A  166.79999999999998  166.79999999999998  166.79999999999998
  141  1  M  168.0  168.0  168.0
  142  1  M  169.2  169.2  169.2
  143  1  M  170.4  170.4  170.4
  144  1  A  171.6  171.6  171.6
  145  1  M  172.79999999999998  172.79999999999998  172.79999999999998
  146  1  A  174.0  174.0  174.0
  147  1  U  175.2  175.2  175.2
  148  1  U  176.4  176.4  176.4
  149  1  U  177.6  177.6  177.6
  150  1  A  178.79999999999998  178.79999999999998  178.79999999999998
  151  1  U  180.0  180.0  180.0
  152  1  M  181.2  181.2  181.2
  153  1  M  182.4  182.4  182.4
  154  1  A  183.6  183.6  183.6
  155  1  A  184.79999999999998  184.79999999999998  184.79999999999998
  156  1  M  186.0  186.0  186.0
  157  1  A  187.2  187.2  187.2
  158  1  U  188.4  188.4  188.4
  159  1  A  189.6  189.6  189.6
  160  1  M  190.79999999999998  190.79999999999998  190.79999999999998
  161  1  U  192.0  192.0  192.0
  162  1  A  193.2  193.2  193.2
  163  1  U  194.4  194.4  194.4
  164  1  M  195.6  195.6  195.6
  165  1  M  196.79999999999998  196.79999999999998  196.79999999999998
  166  1  M  198.0  198.0  198.0
  167  1  M  199.2  199.2  199.2
  168  1  M  200.4  200.4  200.4
  169  1  M  201.6  201.6  201.6
  170  1  M  202.79999999999998  202.79999999999998  202.79999999999998
  171  1  M  204.0  204.0  204.0
  172  1  U  205.2  205.2  205.2
  173  1  U  206.4  206.4  206.4
  174  1  M  207.6  207.6  207.6
  175  1  U  208.79999999999998  208.79999999999998  208.79999999999998
  176  1  A  210.0  210.0  210.0
  177  1  U  211.2  211.2  211.2
  178  1  M  212.4  212.4  212.4
  179  1  A  213.6  213.6  213.6
  180  1  U  214.79999999999998  214.79999999999998  214.79999999999998
  181  1  A  216.0  216.0  216.0
  182  1  M  217.2  217.2  217.2
  183  1  U  218.4  218.4  218.4
  184  1  M  219.6  219.6  219.6
  185  1  M  220.79999999999998  220.79999999999998  220.79999999999998
  186  1  U  222.0  222.0  222.0
  187  1  M  223.2  223.2  223.2
  188  1  U  224.4  224.4  224.4
  189  1  M  225.6  225.6  225.6
  190  1  A  226.79999999999998  226.79999999999998  226.79999999999998
  191  1  A  228.0  228.0  228.0
  192  1  A  229.2  229.2  229.2
  193  1  A  230.39999999999998  230.39999999999998  230.39999999999998
  194  1  M  231.6  231.6  231.6
  195  1  U  232.79999999999998  232.79999999999998  232.79999999999998
  196  1  M  234.0  234.0  234.0
  197  1  U  235.2  235.2  235.2
  198  1  A  236.39999999999998  236.39999999999998  236.39999999999998
  199  1  U  237.6  237.6  237.6
  200  1  U  238.79999999999998  238.79999999999998  238.79999999999998
  1201  1002  P  118.7521496007342  101.21387293101589  107.91763793124898
  1202  1003  P  122.29398634742957  126.19536206109558  114.40116250107718
  1203  1004  P  125.13619772766148  111.43019485379034  104.8562719796223
  1204  1005  P  116.17872222395592  119.8039413452203  124.52569544349878
  1205  1006  P  128.50004381485954  114.58422664536509  113.15297828569919
  1206  1007  P  113.69404065494459  104.97199633337095  120.03279707890884
  1207  1008  P  103.24963722872289  113.53433177131964  103.83926150397643
  1208  1009  P  122.75613022856678  105.91328812721709  123.90871155720448
  1209  1010  P  106.60508609397922  119.11870836621554  102.05439644889205
  1210  1011  P  103.93054287236711  129.71206277291387  118.54600082242936
  211  2  N  156.6087251191547  181.89226691194324  90.56025104110128
  212  3  N  153.43234780770752  73.99557280026119  180.428564414452
  213  4  N  67.88984278468911  182.68611306446394  53.827015367222515
  214  5  N  197.25855548642244  79.3311662218382  110.657049073041
  215  6  N  106.95532850149941  188.1953799210186  146.61757572014463
  216  7  N  123.0675442074194  187.89972802497672  141.73159734989633
  217  8  N  108.56075827887379  186.06790193768342  150.18993598059282
  218  9  N  78.73573749761385  126.7897274056391  193.96883337448202
  219  10  N  137.45074699269819  85.62005388618006  8.39946124911414
  220  11  N  60.47585362020513  117.95092804585568  9.913341524723762
  221  12  N  188.55754590594796  145.74350863832083  108.06799111128576
  222  13  N  69.34956796126613  24.1582798883705  42.47970352694441
  223  14  N  31.55312262548631  87.36822668361287  28.198445138272263
  224  15  N  43.221638026309535  52.34165996123597  167.11855359238695
  225  16  N  34.74361948720582  148.7361268135125  41.97935931423502
  226  17  N  135.721447330208  142.64974923546046  16.903808205264212
  227  18  N  78.41091319218117  166.46237900291038  28.46914296558471
  228  19  N  23.767833724964262  125.8419169681728  159.33676897527675
  229  20  N  146.4394177952599  12.821785106095163  84.40066274646753
  230  21  N  20.537688204795387  52.287024306987234  62.46051472542998
  231  22  N  64.90373259911877  14.763549098393455  138.76853688526117
  232  23  N  188.08416557487027  138.8146929052205  127.10349404878018
  233  24  N  50.277715571719526  47.32221900048555  168.9401611558921
  234  25  N  105.16721929050676  177.1667853444332  163.39232669976693
  235  26  N  73.5438182067157  194.97793262178737  83.28884325332601
  236  27  N  174.9846867691764  70.57041075383346  159.2553459776451
  237  28  N  120.42756590718568  146.33123915814207  13.766996867912411
  238  29  N  28.237848575025637  68.31219131792844  37.98325706885697
  239  30  N  171.01363968362313  152.25121485539418  147.18976080697996
  240  31  N  120.86169593468443  7.698777675330575  67.66930251137913
  241  32  N  35.517186408227616  28.041549403540884  125.76719113612674
  242  33  N  61.61022145809986  7.7300782210953685  96.46638451176668
  243  34  N  147.50809569322973  103.72881879414687  187.9151679404831
  244  35  N  33.535852988703255  74.43512060926932  29.793489591077616
  245  36  N  1.1812479871463495  85.02545826097261  96.74157241475889
  246  37  N  38.90850676371204  153.2598738022399  158.57657634865717
  247  38  N  10.708546937258603  65.52328993068923  128.9550146389349
  248  39  N  67.01160601642387  188.61960556068408  67.46799464138229
  249  40  N  120.6125491382995  137.72919280950958  190.28638229525004
  250  41  N  63.9539358129216  72.95871589220823  189.27177723347233
  251  42  N  64.45915614390736  187.87782884634547  131.84863600296333
  252  43  N  100.192742065824  54.475613958700556  10.963529236279797
  253  44  N  7.662456923352053  66.72096709742173  80.86144969865013
  254  45  N  0.7650402115646529  105.29459355668625  88.84697194224287
  255  46  N  195.13045121187247  69.6515273421701  94.59930934393525
  256  47  N  181.18811216502445  42.32346245931038  109.05027405092406
  257  48  N  15.197619019345694  47.024394693  98.53664004123692
  258  49  N  5.384091139897805  80.1507994863149  125.57027628994958
  259  50  N  20.29939967243277  53.40796948570567  61.568281329343904
  260  51  N  41.03860219427928  160.7264681906522  46.74730401298677
  261  52  N  88.7672254077319  76.92005569665162  196.64957809485583
  262  53  N  50.29536947988393  34.623457029014915  42.94426116487766
  263  54  N  188.061293800088  107.31714294888722  53.184746574218664
  264  55  N  62.353645167497355  173.58512676360232  43.71517889332968
  265  56  N  6.320196308555197  67.21497211758083  112.21623211474636
  266  57  N  87.03503738156999  63.63931522227358  192.2486333058519
  267  58  N  3.3659778035561203  102.32800591019601  74.37879505918417
  268  59  N  47.388895652466026  57.31078442998658  26.44931969485384
  269  60  N  58.831572690584096  113.46884790834169  9.86814808908396
  270  61  N  65.10581408929662  6.356553688589187  103.64701968066967
  271  62  N  162.49270410866987  142.34912080825472  165.5836404902479
  272  63  N  73.13396800846802  86.3481241397809  4.648845782931673
  273  64  N  129.8895241362285  86.87481424113473  5.478331342992604
  274  65  N  108.05139280790031  13.816420686295203  49.924399848516565
  275  66  N  0.7664178701019466  93.85745767826805  89.27781032183675
  276  67  N  100.32031552893203  197.22747971556294  123.38192862280015
  277  68  N  83.33279434904473  127.19205214065268  194.77761632457737
  278  69  N  189.84798029106696  105.0608789825641  143.60880577979498
  279  70  N  103.48296902034733  198.0195348784055  80.50539282200467
  280  71  N  195.0219275525605  74.21551231531724  82.50733070585312
  281  72  N  23.873368779182712  35.16143347758228  100.83445208831768
  282  73  N  192.54860298922227  69.868961006831  122.95379214716912
  283  74  N  132.3879753244849  194.55315420885358  103.27415386585767
  284  75  N  164.2492156171961  85.2899200356777  24.79593202480143
  285  76  N  70.87458746702984  158.95468152359277  24.66039639581281
  286  77  N  196.07453825249462  113.20928472814485  75.60332201834144
  287  78  N  74.69580471681299  194.3901087821614  78.78196368270454
  288  79  N  70.63145505292374  46.67644023467024  179.33527930022598
  289  80  N  32.375506089902004  166.58871428844728  68.49014514767393
  290  81  N  47.37952608555698  80.30360794468942  17.276739274718395
  291  82  N  95.3145380708663  194.3078949323923  132.92517881396395
  292  83  N  139.2088117098225  107.33354260118229  8.300009611667178
  293  84  N  89.09992503093622  198.53464984924148  86.88088628160546
  294  85  N  67.02727037065733  119.76860321578943  192.31468695547284
  295  86  N  83.74718483983364  159.2832922419242  21.12454589463161
  296  87  N  185.75206388230282  63.361056069217945  63.88668766836166
  297  88  N  28.664677754671928  169.4720821371808  90.78579337761467
  298  89  N  182.841660163984  119.14386509177393  47.361879111969195
  299  90  N  187.9076952145888  68.15098686432603  64.53343145520525
  300  91  N  197.88792443812991  119.35448903997766  106.58467943003683
  301  92  N  65.18711783479264  126.45935814918617  189.93311737999792
  302  93  N  15.269633035538007  87.59328987903129  48.35855871451824
  303  94  N  87.00215795360978  56.62620982746945  189.1614851166488
  304  95  N  35.001287182945404  68.19084065595268  30.98301141058768
  305  96  N  19.47740269798453  141.6359208891102  142.22039099124032
  306  97  N  8.34032322141266  71.32440697891816  72.13938231599707
  307  98  N  4.546688896958358  125.61298906675538  84.74745298213385
  308  99  N  59.0974602898119  191.11132226911997  94.92957599119698
  309  100  N  30.807802434721793  103.7132935164606  27.898327014221636
  310  101  N  87.24730628558738  194.85516778643503  71.01955922982472
  311  102  N  80.35023493569906  196.0551832505669  119.67964693834193
  312  103  N  66.8254443221434  147.14441582564962  18.287987957491637
  313  104  N  20.79128437931338  121.62445806766141  157.08206533580534
  314  105  N  88.49556647513039  115.75000665574925  1.9205153989086767
  315  106  N  162.1847592542392  25.912456504971644  74.62103990773863
  316  107  N  80.07409844005403  124.22498298738124  194.9531918699126
  317  108  N  199.02910618208603  107.35951668084917  111.79294886792266
  318  109  N  124.16445700306431  4.336079604270438  116.26325158959837
  319  110  N  79.75848981052395  11.53624191413951  57.99470544591204
  320  111  N  191.51643503603262  137.28949508885114  115.30475985810192
  321  112  N  41.413422649003806  173.70333115261616  133.696170870049
  322  113  N  7.027732950804122  71.11089610629791  77.16193449628678
  323  114  N  43.82459078232819  18.338956326999707  113.25885913129218
  324  115  N  12.696719621828251  69.16768792353976  62.21765270354294
  325  116  N  74.35044949784614  150.2455496280853  182.56806465946187
  326  117  N  57.698985345457295  96.3330335487656  190.53826548063358
  327  118  N  147.64648639567818  143.10577430848716  176.62704845817973
  328  119  N  93.31442675665467  81.4759521352847  198.04163789489445
  329  120  N  37.258524013324035  45.183899064720116  44.69446438857526
  330  121  N  15.04715161899425  100.44840963402312  152.75236943260427
  331  122  N  121.60674415229596  3.420250645934246  85.66470712391762
  332  123  N  37.66342210396313  138.1749499243303  31.759071998644387
  333  124  N  31.317604239000175  98.28907148495715  172.6622407867099
  334  125  N  38.92178747191222  155.43002264966103  43.45829376971536
  335  126  N  54.808269010856414  52.832430173334814  24.28389994953818
  336  127  N  29.03376472581465  48.59664211653968  51.818175114324816
  337  128  N  90.57218260165658  12.469281026113862  52.571216597744545
  338  129  N  175.64223591403865  101.72947302983042  165.38548056689658
  339  130  N  23.157129482206344  152.6762869964935  63.66293849458039
  340  131  N  44.96040413866878  21.089588118460057  127.27250967745823
  341  132  N  172.0846677822433  39.22981224834926  66.67155942212815
  342  133  N  143.55495754146745  151.18828932902034  174.04542328280303
  343  134  N  11.962027671478367  96.72678470275785  52.686138501488166
  344  135  N  178.33270867058795  160.9574217306819  87.82710025192907
  345  136  N  169.72762687933232  74.92957091602572  167.15304635920867
  346  137  N  170.2746721082621  103.14581345237124  28.92557198401714
  347  138  N  159.24381046212432  51.77661461092687  164.53430113935394
  348  139  N  142.46249781316317  27.915050648973136  154.77861221797247
  349  140  N  195.30301320288874  108.79724958883216  128.98178866325892
  350  141  N  194.7031615950304  128.42731497281366  114.9398442877429
  351  142  N  9.09309831345793  69.57496747490093  128.4649367046554
  352  143  N  104.06250021077226  119.95338570213835  197.90484406330046
  353  144  N  159.80683130852353  179.6134346296215  90.78892214185616
  354  145  N  182.41606477980235  62.63455228671208  142.56072818217478
  355  146  N  121.45161805009718  129.20242229243007  193.20432723477666
  356  147  N  185.12564434118596  145.9738530505045  125.2988045406998
  357  148  N  104.04188090196017  170.7239809835038  170.58173781240703
  358  149  N  136.4949173931892  143.18102366081783  182.48345409879602
  359  150  N  1.6500448339465947  111.47723225100455  86.01574246905518
  360  151  N  80.81378477441392  3.3732353127166874  82.81985182293616
  361  152  N  197.87664107959066  120.420497880239  101.77943735493616
  362  153  N  179.81339419125294  68.96824106461759  151.641572836698
  363  154  N  105.17663028830339  31.44393271562444  172.61727161879872
  364  155  N  196.6621177979104  117.64484968560394  118.57671290609107
  365  156  N  25.502994069563073  67.51934065311114  41.73163057205216
  366  157  N  90.58436533658491  198.47964076806434  114.59815666713077
  367  158  N  109.08856466665529  192.3391975590261  62.70562258925383
  368  159  N  145.50060745219085  186.9794784230503  80.91427091422071
  369  160  N  105.12297789805086  172.574574840103  31.394707316167143
  370  161  N  93.02271570569886  199.4328322663231  108.02679085150197
  371  162  N  51.592036089788905  186.49582070816916  113.23412369928408
  372  163  N  140.31505898040137  122.95735418316136  188.58699627098574
  373  164  N  142.0563379751439  171.72283352260217  44.438326270624586
  374  165  N  91.79681385385514  105.92209512006218  199.48686610020758
  375  166  N  151.0785130592837  28.252099189411325  52.63731180637536
  376  167  N  39.603888015098065  147.03730219906095  164.34129202107619
  377  168  N  9.378953748567227  93.73147239138251  58.18455383574532
  378  169  N  187.473012395881  87.80960646183873  53.097266521291054
  379  170  N  80.4259741960311  94.94678981753886  197.935297930202
  380  171  N  36.63611937161886  148.14225063910595  39.44141402646717
  381  172  N  153.12377580149467  100.2846734847546  184.72180006113896
  382  173  N  144.5406614693222  182.73854607031404  134.2120223027777
  383  174  N  101.44622057851626  31.814066782752164  26.86596580707929
  384  175  N  64.19112828500442  101.90146416414281  193.34939282358226
  385  176  N  16.99618408201856  53.94303347569574  68.54968398198568
  386  177  N  105.62502033197927  146.09077464921052  188.5663572610984
  387  178  N  11.195602078453348  145.84453123064796  103.47244381289957
  388  179  N  19.156211835047557  139.81857895492885  56.65530384060359
  389  180  N  160.80929274835438  112.17340207052013  178.44767808848385
  390  181  N  69.46579425761948  182.1398944621755  148.17364442747348
  391  182  N  36.25700443884971  88.9987721797966  176.26141556081396
  392  183  N  151.75337323857073  21.110975666501957  133.13774582161474
  393  184  N  50.01732755364385  15.091871501088818  117.09801654966611
  394  185  N  130.8127688144258  110.63665515570416  194.53800741018068
  395  186  N  33.39512543149975  70.29806587665311  168.42211479519403
  396  187  N  73.5849141770155  164.67939761204758  28.454079323087768
  397  188  N  55.519737657773625  131.3335611062166  16.096995224427687
  398  189  N  103.56784566965366  1.317192925950053  84.2210879569163
  399  190  N  42.31108643617999  67.78899974069995  175.06291170825628
  400  191  N  183.79719999249804  76.62209953024819  50.68972680015183
  401  192  N  199.36700899997015  97.41968913254345  89.0665870732357
  402  193  N  51.90687420103183  176.36081425107827  143.08221556276956
  403  194  N  172.07794534131898  156.0802484981924  59.25965729458299
  404  195  N  152.94076124006685  138.51233593361235  24.408493993975583
  405  196  N  128.3188750707095  187.53099793126404  139.19650132201335
  406  197  N  109.07837024393338  56.39351096926275  10.467562815891938
  407  198  N  71.90192706297273  138.0818259618207  11.907589267638414
  408  199  N  12.145507511271774  53.88599829291404  112.45339295561138
  409  200  N  24.63290831983791  97.08178484655078  34.33961992196343
  410  201  N  27.397556635915663  52.94550115928823  150.14737636621064
  411  202  N  119.54712139431615  87.3135146153131  197.24691837677938
  412  203  N  26.509406243276487  165.96415950360324  115.74364285251099
  413  204  N  164.60119792235963  64.30448889205758  167.4723329501721
  414  205  N  159.02016004940316  164.5203971975859  51.48465136466005
  415  206  N  59.99532497354349  118.92937075246161  10.326676770940082
  416  207  N  2.815435121953911  96.38108239734186  76.71773668970256
  417  208  N  199.63157457172443  103.65094299954337  107.76015229058036
  418  209  N  92.41055130587962  0.29345602705041074  101.00267516653436
  419  210  N  73.62758333323184  99.78611720027314  196.45957647275023
  420  211  N  196.62099311833822  76.3311435283942  89.79368224321016
  421  212  N  47.98643354930002  56.10248181705804  26.73611529234273
  422  213  N  50.93232241613665  133.7450511121436  180.3345165042079
  423  214  N  164.8840531152002  151.95224730747904  155.5969751969153
  424  215  N  41.76203493049183  59.952638156382385  29.257168321241863
  425  216  N  6.851008744771249  73.6361134181785  74.93586401979567
  426  217  N  18.469921833745147  126.58520929467974  151.4399941773174
  427  218  N  199.96901897920804  98.01478507142542  101.5013880318257
  428  219  N  162.19652763970922  73.52599324183888  26.30658838314156
  429  220  N  134.9417623140775  160.58869345603625  171.4708574992422
  430  221  N  195.21910696236986  127.48236436618316  113.34321243678274
  431  222  N  7.825076549738711  61.272698091040134  101.99488691176873
  432  223  N  68.84690069217258  177.41342649296737  44.89423077268062
  433  224  N  175.3787290380817  147.6991688814569  54.80225119962594
  434  225  N  61.02585421467514  133.653611809812  14.276897090348356
  435  226  N  43.33652089856982  17.649000492241015  102.75009385200964
  436  227  N  42.26816741601924  142.23282020332059  30.118497410479122
  437  228  N  185.6648710884458  53.75084568219112  77.1407439690732
  438  229  N  165.77284009242948  107.63320603161951  174.93775865246135
  439  230  N  167.67916813174298  144.3533050212963  158.7563999465855
  440  231  N  100.12118291148424  137.4640001001872  192.7169564383729
  441  232  N  15.645495204755278  111.3378025057677  152.4954450889717
  442  233  N  93.89927674119123  1.862219022823595  81.78579893063707
  443  234  N  199.96600033604273  97.63819529759682  98.8951672696702
  444  235  N  41.840161130752186  18.72369250687754  96.59485932940532
  445  236  N  140.78525342751107  137.5463782349164  183.2275950889745
  446  237  N  39.51890693538602  110.81721212040304  21.10117045448831
  447  238  N  61.83908006057313  130.99462098573537  187.08086850351958
  448  239  N  179.26574121883374  74.29468467217026  155.28271911660752
  449  240  N  22.027556505958756  162.55196714270116  102.74762845868564
  450  241  N  166.59180665405074  47.73129538807736  46.769240051065395
  451  242  N  62.055448621241986  103.88182795661237  7.560060404714378
  452  243  N  143.2761942110724  58.61790169235694  180.09177831876445
  453  244  N  39.1474808707854  59.48616249720754  168.23195648979953
  454  245  N  126.3353147553166  102.49498811498066  196.43768055612136
  455  246  N  128.95185200271072  86.70947525049574  194.79004281830424
  456  247  N  91.2344436226256  119.86365508950513  197.6145492633155
  457  248  N  103.70631714110573  11.036045005541354  54.484311221365864
  458  249  N  34.05799130148358  110.71393078789465  25.589898697307305
  459  250  N  51.74317345450813  93.10013869301055  12.686366438553137
  460  251  N  4.9775577999687926  97.54603096325783  68.94016235862716
  461  252  N  35.1023857292099  86.32244324049513  25.158673828891395
  462  253  N  159.58192685495735  124.66910995942612  23.570758174241618
  463  254  N  194.00231074835392  131.6741037268847  112.66162418761719
  464  255  N  191.12067025114243  66.14081185693713  76.53558372183028
  465  256  N  92.66411264811619  33.58196124921568  25.603569405113376
  466  257  N  164.30948587668496  175.45970724633924  86.95689421290925
  467  258  N  112.85440106319705  188.04249641878508  54.35700275338292
  468  259  N  196.3411629843094  126.4049460749583  95.40009373907709
  469  260  N  89.7302584273039  199.45591710607127  101.74727233719311
  470  261  N  26.014831405826854  164.88179869755282  82.2082315139273
  471  262  N  20.690282775026333  55.67441682892267  141.77572776432052
  472  263  N  186.63925968026263  116.09592321360866  52.728867815995464
  473  264  N  55.8077159220694  51.030242694977325  175.1598622767675
  474  265  N  89.01374238249194  197.715299255344  118.19402195778355
  475  266  N  133.84264420445274  31.00771782564526  36.00984111892647
  476  267  N  186.153304562317  121.09308479116265  53.81894450117592
  477  268  N  56.3373855096602  145.22174289213632  22.227446578722336
  478  269  N  176.23911698827882  36.25345469535979  111.1344062513898
  479  270  N  81.3342910351852  190.414777962946  61.57137480013094
  480  271  N  100.34251595672474  193.56422150358895  135.29332992573427
  481  272  N  181.57164896516957  101.86641746989278  157.81507217786063
  482  273  N  34.3681757191853  33.58105783914495  135.79088939667824
  483  274  N  55.9110347000193  155.13178444708532  170.82830989411804
  484  275  N  29.15369089087241  131.84677072472408  37.01918006233325
  485  276  N  104.61557726877035  1.1096139929021547  85.87951835654343
  486  277  N  124.64414109692599  78.23504887428744  5.559790279298156
  487  278  N  45.13677959047383  164.8882528335135  152.72135895924706
  488  279  N  92.96052657240489  174.46905739419776  166.36870726993155
  489  280  N  45.53821282060584  72.40384881367343  179.19827130012237
  490  281  N  23.637741304638467  130.6194832803696  43.15589132912848
  491  282  N  140.8390490342369  187.90245117970687  75.3965215756299
  492  283  N  102.51853327957132  199.32707571464982  111.30438057108468
  493  284  N  106.20549712605681  11.403749457014555  54.041364302853275
  494  285  N  107.60738463248242  157.07797109180993  181.75715818872362
  495  286  N  2.554905552149208  119.65783796830736  110.86383792502511