LAMMPS (17 Apr 2024 - Development - patch_17Apr2024-139-g008a8fcb11-modified)
