# Initialisation file of the particles

1200  atoms
199  bonds
198  angles
197  dihedrals

4  atom types
1  bond types
1  angle types
1  dihedral types

0.0000   200.0000 xlo xhi 
0.0000   200.0000 ylo yhi 
0.0000   200.0000 zlo zhi

Atom Type Labels

1    A
2    U
3    M
4    HP

Bond Type Labels

1    Normal
Angle Type Labels

1    Normal

Dihedral Type Labels

1    Normal

Masses

1    1.00 
2    1.00 
3    1.00 
4    1.00 

Atoms

  1  1  M  0.0  0.0  0.0
  2  1  M  1.0  1.0  1.0
  3  1  A  2.0  2.0  2.0
  4  1  M  3.0  3.0  3.0
  5  1  M  4.0  4.0  4.0
  6  1  U  5.0  5.0  5.0
  7  1  M  6.0  6.0  6.0
  8  1  M  7.0  7.0  7.0
  9  1  M  8.0  8.0  8.0
  10  1  M  9.0  9.0  9.0
  11  1  A  10.0  10.0  10.0
  12  1  M  11.0  11.0  11.0
  13  1  A  12.0  12.0  12.0
  14  1  A  13.0  13.0  13.0
  15  1  M  14.0  14.0  14.0
  16  1  U  15.0  15.0  15.0
  17  1  A  16.0  16.0  16.0
  18  1  M  17.0  17.0  17.0
  19  1  A  18.0  18.0  18.0
  20  1  U  19.0  19.0  19.0
  21  1  U  20.0  20.0  20.0
  22  1  M  21.0  21.0  21.0
  23  1  U  22.0  22.0  22.0
  24  1  A  23.0  23.0  23.0
  25  1  A  24.0  24.0  24.0
  26  1  U  25.0  25.0  25.0
  27  1  M  26.0  26.0  26.0
  28  1  U  27.0  27.0  27.0
  29  1  A  28.0  28.0  28.0
  30  1  M  29.0  29.0  29.0
  31  1  M  30.0  30.0  30.0
  32  1  A  31.0  31.0  31.0
  33  1  A  32.0  32.0  32.0
  34  1  M  33.0  33.0  33.0
  35  1  U  34.0  34.0  34.0
  36  1  M  35.0  35.0  35.0
  37  1  U  36.0  36.0  36.0
  38  1  A  37.0  37.0  37.0
  39  1  M  38.0  38.0  38.0
  40  1  M  39.0  39.0  39.0
  41  1  A  40.0  40.0  40.0
  42  1  A  41.0  41.0  41.0
  43  1  U  42.0  42.0  42.0
  44  1  U  43.0  43.0  43.0
  45  1  A  44.0  44.0  44.0
  46  1  A  45.0  45.0  45.0
  47  1  A  46.0  46.0  46.0
  48  1  A  47.0  47.0  47.0
  49  1  M  48.0  48.0  48.0
  50  1  U  49.0  49.0  49.0
  51  1  M  50.0  50.0  50.0
  52  1  M  51.0  51.0  51.0
  53  1  A  52.0  52.0  52.0
  54  1  U  53.0  53.0  53.0
  55  1  U  54.0  54.0  54.0
  56  1  M  55.0  55.0  55.0
  57  1  U  56.0  56.0  56.0
  58  1  M  57.0  57.0  57.0
  59  1  A  58.0  58.0  58.0
  60  1  A  59.0  59.0  59.0
  61  1  U  60.0  60.0  60.0
  62  1  A  61.0  61.0  61.0
  63  1  M  62.0  62.0  62.0
  64  1  A  63.0  63.0  63.0
  65  1  M  64.0  64.0  64.0
  66  1  M  65.0  65.0  65.0
  67  1  A  66.0  66.0  66.0
  68  1  M  67.0  67.0  67.0
  69  1  A  68.0  68.0  68.0
  70  1  A  69.0  69.0  69.0
  71  1  U  70.0  70.0  70.0
  72  1  U  71.0  71.0  71.0
  73  1  U  72.0  72.0  72.0
  74  1  U  73.0  73.0  73.0
  75  1  U  74.0  74.0  74.0
  76  1  U  75.0  75.0  75.0
  77  1  A  76.0  76.0  76.0
  78  1  U  77.0  77.0  77.0
  79  1  M  78.0  78.0  78.0
  80  1  M  79.0  79.0  79.0
  81  1  U  80.0  80.0  80.0
  82  1  A  81.0  81.0  81.0
  83  1  M  82.0  82.0  82.0
  84  1  M  83.0  83.0  83.0
  85  1  A  84.0  84.0  84.0
  86  1  A  85.0  85.0  85.0
  87  1  A  86.0  86.0  86.0
  88  1  A  87.0  87.0  87.0
  89  1  U  88.0  88.0  88.0
  90  1  M  89.0  89.0  89.0
  91  1  M  90.0  90.0  90.0
  92  1  M  91.0  91.0  91.0
  93  1  A  92.0  92.0  92.0
  94  1  U  93.0  93.0  93.0
  95  1  U  94.0  94.0  94.0
  96  1  U  95.0  95.0  95.0
  97  1  A  96.0  96.0  96.0
  98  1  M  97.0  97.0  97.0
  99  1  U  98.0  98.0  98.0
  100  1  M  99.0  99.0  99.0
  101  1  U  100.0  100.0  100.0
  102  1  U  101.0  101.0  101.0
  103  1  A  102.0  102.0  102.0
  104  1  U  103.0  103.0  103.0
  105  1  A  104.0  104.0  104.0
  106  1  M  105.0  105.0  105.0
  107  1  U  106.0  106.0  106.0
  108  1  A  107.0  107.0  107.0
  109  1  M  108.0  108.0  108.0
  110  1  M  109.0  109.0  109.0
  111  1  U  110.0  110.0  110.0
  112  1  M  111.0  111.0  111.0
  113  1  U  112.0  112.0  112.0
  114  1  M  113.0  113.0  113.0
  115  1  A  114.0  114.0  114.0
  116  1  U  115.0  115.0  115.0
  117  1  U  116.0  116.0  116.0
  118  1  A  117.0  117.0  117.0
  119  1  M  118.0  118.0  118.0
  120  1  U  119.0  119.0  119.0
  121  1  A  120.0  120.0  120.0
  122  1  M  121.0  121.0  121.0
  123  1  M  122.0  122.0  122.0
  124  1  M  123.0  123.0  123.0
  125  1  A  124.0  124.0  124.0
  126  1  M  125.0  125.0  125.0
  127  1  M  126.0  126.0  126.0
  128  1  A  127.0  127.0  127.0
  129  1  U  128.0  128.0  128.0
  130  1  M  129.0  129.0  129.0
  131  1  U  130.0  130.0  130.0
  132  1  M  131.0  131.0  131.0
  133  1  A  132.0  132.0  132.0
  134  1  U  133.0  133.0  133.0
  135  1  M  134.0  134.0  134.0
  136  1  M  135.0  135.0  135.0
  137  1  M  136.0  136.0  136.0
  138  1  A  137.0  137.0  137.0
  139  1  A  138.0  138.0  138.0
  140  1  M  139.0  139.0  139.0
  141  1  U  140.0  140.0  140.0
  142  1  A  141.0  141.0  141.0
  143  1  M  142.0  142.0  142.0
  144  1  M  143.0  143.0  143.0
  145  1  U  144.0  144.0  144.0
  146  1  A  145.0  145.0  145.0
  147  1  A  146.0  146.0  146.0
  148  1  U  147.0  147.0  147.0
  149  1  M  148.0  148.0  148.0
  150  1  U  149.0  149.0  149.0
  151  1  U  150.0  150.0  150.0
  152  1  A  151.0  151.0  151.0
  153  1  U  152.0  152.0  152.0
  154  1  U  153.0  153.0  153.0
  155  1  M  154.0  154.0  154.0
  156  1  M  155.0  155.0  155.0
  157  1  U  156.0  156.0  156.0
  158  1  M  157.0  157.0  157.0
  159  1  M  158.0  158.0  158.0
  160  1  U  159.0  159.0  159.0
  161  1  A  160.0  160.0  160.0
  162  1  A  161.0  161.0  161.0
  163  1  U  162.0  162.0  162.0
  164  1  A  163.0  163.0  163.0
  165  1  M  164.0  164.0  164.0
  166  1  M  165.0  165.0  165.0
  167  1  A  166.0  166.0  166.0
  168  1  A  167.0  167.0  167.0
  169  1  M  168.0  168.0  168.0
  170  1  M  169.0  169.0  169.0
  171  1  U  170.0  170.0  170.0
  172  1  U  171.0  171.0  171.0
  173  1  U  172.0  172.0  172.0
  174  1  A  173.0  173.0  173.0
  175  1  U  174.0  174.0  174.0
  176  1  A  175.0  175.0  175.0
  177  1  M  176.0  176.0  176.0
  178  1  U  177.0  177.0  177.0
  179  1  M  178.0  178.0  178.0
  180  1  A  179.0  179.0  179.0
  181  1  M  180.0  180.0  180.0
  182  1  M  181.0  181.0  181.0
  183  1  M  182.0  182.0  182.0
  184  1  U  183.0  183.0  183.0
  185  1  A  184.0  184.0  184.0
  186  1  A  185.0  185.0  185.0
  187  1  M  186.0  186.0  186.0
  188  1  M  187.0  187.0  187.0
  189  1  M  188.0  188.0  188.0
  190  1  M  189.0  189.0  189.0
  191  1  M  190.0  190.0  190.0
  192  1  A  191.0  191.0  191.0
  193  1  M  192.0  192.0  192.0
  194  1  U  193.0  193.0  193.0
  195  1  M  194.0  194.0  194.0
  196  1  U  195.0  195.0  195.0
  197  1  M  196.0  196.0  196.0
  198  1  M  197.0  197.0  197.0
  199  1  U  198.0  198.0  198.0
  200  1  U  199.0  199.0  199.0
  201  2  HP  60.20998785637315  156.04913761678512  54.566409360026995
  202  3  HP  100.63399428895583  118.8649967376418  169.02918358883204
  203  4  HP  103.4183027948525  141.1294045242458  88.48120158865014
  204  5  HP  102.40516924214668  124.15353229823022  64.62963122754148
  205  6  HP  40.5151815601318  130.2003952677047  70.10883169061017
  206  7  HP  103.19201399032106  122.09371092822556  113.28450051288311
  207  8  HP  78.33164590633372  42.27910657474068  45.359815361156855
  208  9  HP  109.62451838311698  15.266685466900995  145.1772108506516
  209  10  HP  78.83529292403554  84.51235920582899  70.86156059980163
  210  11  HP  91.61804622420145  117.50384244507792  118.83756707615727
  211  12  HP  144.11985542166798  70.10258701676558  107.71586578408422
  212  13  HP  86.80652209628407  92.50518262140686  113.08566523756764
  213  14  HP  61.42685325487197  94.43128075167101  126.79498162081278
  214  15  HP  130.22573839328464  38.313602445175185  135.51359510704575
  215  16  HP  91.41348492119795  52.94534024458693  43.57452899323233
  216  17  HP  134.99897847195567  114.24271438177009  108.87719919920318
  217  18  HP  80.08118751492829  146.657619526367  48.12561698643435
  218  19  HP  115.50669646476474  142.26353139194737  71.29078471781911
  219  20  HP  89.82032472305988  179.41087848073917  78.32762500443869
  220  21  HP  73.94330650924893  125.50358888153461  77.47938107667133
  221  22  HP  18.765999830975815  44.93696404912889  116.764883879004
  222  23  HP  154.02804157393922  136.40691888981416  69.26853940912277
  223  24  HP  108.60085029102248  137.78575329551032  91.4909002190671
  224  25  HP  160.7942877193334  124.98506416621382  156.37733290313304
  225  26  HP  74.81427644724556  50.00548157656956  42.206564480742244
  226  27  HP  65.80247188341265  44.61630073295291  145.96454135072923
  227  28  HP  94.65593772450903  104.3859732547162  109.80861062341228
  228  29  HP  131.03962831240463  64.59878458048001  61.25933939821326
  229  30  HP  127.41325848809949  133.2730954453723  138.87938249954613
  230  31  HP  54.067456797269834  91.99822446921416  52.14251984192155
  231  32  HP  119.77625990291331  109.04196417844143  27.61929929812885
  232  33  HP  137.8878078094329  147.78822324703015  147.34519378406952
  233  34  HP  98.94826189023948  164.7721500108488  57.814008913801615
  234  35  HP  61.19054649805316  105.30474089663194  149.15940612847524
  235  36  HP  119.69115776648707  66.01412058816723  119.89404198816706
  236  37  HP  91.40901477862315  150.95645590788513  133.02972501333332
  237  38  HP  100.48596482779054  159.1661580196054  89.93485744566519
  238  39  HP  69.46113934549092  138.45736356217685  156.9665482527046
  239  40  HP  121.92650219732624  19.142612061515536  151.3925296118178
  240  41  HP  142.31943454332242  138.31165279193968  152.7374903247224
  241  42  HP  107.99370390162773  110.2156170201601  82.15846851769075
  242  43  HP  161.00990366341196  94.75922765917804  21.322039200818324
  243  44  HP  123.44183769125092  69.59486097431416  95.19557417273157
  244  45  HP  127.38516747184612  43.27983294586085  41.90171250860897
  245  46  HP  78.98413007203328  156.3225552960512  130.51697018793578
  246  47  HP  75.64683021251176  113.46260548182856  97.60721711834611
  247  48  HP  135.92501798331628  68.03679335906392  129.6826977639434
  248  49  HP  85.56515666348645  100.12155142801814  98.95715569061532
  249  50  HP  176.71348925952861  143.70308301948444  140.98354672324024
  250  51  HP  98.12870426449913  115.30334315898331  99.40662729924496
  251  52  HP  71.74262510965576  110.2358323741281  103.2017900667323
  252  53  HP  83.68147134835374  94.94655753398963  98.980059732664
  253  54  HP  61.63396290846793  137.67715732233927  86.13826662261194
  254  55  HP  105.82774906861984  170.3692316030938  115.31342152132396
  255  56  HP  136.17772488439576  127.46164989833885  130.060377052676
  256  57  HP  109.79072339595096  83.82481027571276  141.41124677854663
  257  58  HP  99.59885073208339  100.11166122133446  99.72441949938691
  258  59  HP  88.61214756047896  82.54064121609979  155.3406531123484
  259  60  HP  105.15987831050342  104.52863828825379  91.16031910591452
  260  61  HP  139.30255139612257  141.77207250866908  156.23805479829014
  261  62  HP  101.31180416588936  112.19528833312341  83.80208337096073
  262  63  HP  105.45750998945371  72.24061565480902  102.58034683663024
  263  64  HP  100.49939800686155  111.54260748463433  127.19506171118738
  264  65  HP  157.2139817321234  83.65130646419479  65.8145140381027
  265  66  HP  84.84410060242313  83.74052343058597  53.85929069248828
  266  67  HP  71.38148877643862  162.6079101742309  148.94976459197702
  267  68  HP  66.7366810850601  113.6782018735183  62.92115352944474
  268  69  HP  97.86149609380902  87.30453845605672  116.55054073670776
  269  70  HP  81.36434076384438  36.065948591504196  119.43292790800348
  270  71  HP  19.322966497835978  130.30169810602968  77.4182137108821
  271  72  HP  106.13665650961094  87.66356027208846  56.711865637180196
  272  73  HP  95.36033628175119  110.766873808849  134.67991451161205
  273  74  HP  72.63629267573504  107.41622837984521  58.27166564852823
  274  75  HP  96.32533300350988  85.28478698432183  107.80736901347495
  275  76  HP  127.16232861725973  136.38295847371307  77.94909383265397
  276  77  HP  74.65612654863088  96.74216853383545  56.62550022428045
  277  78  HP  105.71203858789792  89.24384025220905  75.05462829384605
  278  79  HP  90.7552720856888  113.0727394310716  112.36786471813207
  279  80  HP  97.09664402749571  97.32390969750743  100.61510001140269
  280  81  HP  130.60103739338868  66.21908907051284  169.29247117184536
  281  82  HP  140.46790737060755  102.20375199534296  90.43575961730419
  282  83  HP  98.74265884310506  96.9926482292136  113.44020341528018
  283  84  HP  124.67067077892858  141.77700014520929  103.57797478986915
  284  85  HP  104.81171862539478  100.45565720181526  95.9485334548669
  285  86  HP  70.06515421516622  73.65981611834987  16.250313294426334
  286  87  HP  83.6081977510942  8.03675484268679  90.38474549555227
  287  88  HP  49.32372006121472  64.77676063011182  152.41519077690126
  288  89  HP  122.97338970743951  61.70872213298269  86.71386019613877
  289  90  HP  98.72618679964114  71.22456603936573  140.72869831645696
  290  91  HP  6.83363616100209  67.62885323382454  85.97589979543677
  291  92  HP  40.45154088510099  95.79938277521711  125.03769674461967
  292  93  HP  105.87068242369408  79.99759324227435  184.42653353536105
  293  94  HP  95.3097756108544  133.41243035426453  103.67352728133143
  294  95  HP  178.23274642239565  65.65937814744848  79.98117452975556
  295  96  HP  94.58089515359815  97.64812348908727  66.62498876368808
  296  97  HP  106.47896673161861  130.69050713218815  88.4845804869228
  297  98  HP  134.98262629268103  49.98813821539795  158.05842214132255
  298  99  HP  108.36350394759683  65.0313491949697  142.05469476706915
  299  100  HP  116.68983811846162  118.41356030233723  87.58901685757617
  300  101  HP  80.59848058744448  156.02835939282375  168.71890572832538
  301  102  HP  151.93483903481498  64.22046820286069  141.49385586822768
  302  103  HP  7.094530273602672  70.31557150121509  115.75439024934222
  303  104  HP  132.59788902559424  111.88067617368515  90.30862327545286
  304  105  HP  109.36973310767334  60.69316596621022  85.11730668888907
  305  106  HP  126.07566026351256  150.45575685930459  88.04548204700782
  306  107  HP  100.0978407259392  42.93549102748963  121.10992341989352
  307  108  HP  46.892005433753894  113.84230444540194  127.70067847690629
  308  109  HP  155.0389482564539  97.31183022024071  98.99213716573905
  309  110  HP  66.47734461560674  172.84160425397852  157.91503233818105
  310  111  HP  137.04998199586163  191.69686490970741  112.52572464196966
  311  112  HP  165.77867200100872  160.7269129474698  86.16104941757689
  312  113  HP  116.6039329795125  95.03426655143753  95.56005488359054
  313  114  HP  63.23303867944063  121.37168935609824  35.9419162133517
  314  115  HP  105.8650187021153  89.35718503277785  118.21575973050565
  315  116  HP  86.03003447384873  85.12870151529856  90.02373879443755
  316  117  HP  90.65009007042426  94.55229335474586  72.51865289691997
  317  118  HP  97.67498676556654  20.322401143984862  48.85359566528044
  318  119  HP  80.22530138083461  99.34416315138493  146.97409365521628
  319  120  HP  108.78722432657429  150.29504942339383  41.18751062596882
  320  121  HP  108.70794670824985  69.49733075308043  169.2651382741658
  321  122  HP  67.78507059232564  111.82700954334051  133.3836600749309
  322  123  HP  115.74096071992967  41.822333775181015  85.19078561430521
  323  124  HP  137.17622439428547  61.66378920779907  144.30145046082
  324  125  HP  101.54753925772711  96.8378333092359  99.04505082683283
  325  126  HP  115.75937057239098  113.56105515224944  101.17405130788302
  326  127  HP  114.59654005295187  95.37104934874327  105.00308926566133
  327  128  HP  96.64664473908385  109.27287560793022  7.986186487829073
  328  129  HP  122.6192530404748  106.98414822362442  87.80313336596959
  329  130  HP  109.36475857591182  112.19364779834648  85.0836932744213
  330  131  HP  140.33753553089497  101.06004210206095  99.3999833203163
  331  132  HP  85.01674887844003  134.86136649789336  106.77920549615497
  332  133  HP  112.76530386241161  125.18942262679356  126.93834984835036
  333  134  HP  87.2280501032362  88.35993777842285  73.9757431955167
  334  135  HP  98.09188662179804  102.76008160083906  108.31028875301043
  335  136  HP  121.2340805673485  40.15894296678751  37.141227890972566
  336  137  HP  162.51661531452322  148.36911497496982  142.5553860440389
  337  138  HP  131.53948602343857  7.840470265221967  81.32147302962152
  338  139  HP  53.5851147679151  122.46255924530546  47.2429251207909
  339  140  HP  118.21042677863903  128.85529501711537  80.95840937391436
  340  141  HP  133.6617041248781  95.53853741804534  46.938792516100264
  341  142  HP  46.719449301275326  140.01955507194384  78.0234443272495
  342  143  HP  70.62075138182814  127.56722130821842  94.55322637577602
  343  144  HP  95.32821061913154  79.76049536851329  110.70977639053523
  344  145  HP  102.73678860131446  145.83201062827533  31.394090748430543
  345  146  HP  88.28382782266058  70.19992236999093  152.70422699661395
  346  147  HP  105.92817079787142  162.8944567007562  56.87454368046896
  347  148  HP  131.0461567562092  121.78489806220935  80.43195616375247
  348  149  HP  95.43675125811421  149.93840097897413  148.86560002444202
  349  150  HP  121.8269262352876  90.9351492893109  86.45375816258439
  350  151  HP  101.40986324552978  98.23943684075259  100.2288594467246
  351  152  HP  95.32786118475163  90.30211872265136  123.84202276853777
  352  153  HP  76.77053154898789  150.14660618041722  174.34729014603082
  353  154  HP  99.8164380753519  99.6228572199899  97.56744418843839
  354  155  HP  97.07717755266633  98.34174393596246  100.98677580259908
  355  156  HP  85.12780643303051  81.94718241815721  114.94394832459298
  356  157  HP  143.04294052342615  172.328360603561  56.68872573112884
  357  158  HP  9.400869640607766  99.0226203132677  121.46429843714269
  358  159  HP  102.44748483423027  100.20768174303784  98.93411601323044
  359  160  HP  84.75510746919564  91.20508300940644  163.12919708187206
  360  161  HP  83.80915569321262  66.86250825028911  65.36766243421506
  361  162  HP  89.41894858095051  110.41384287802897  67.14402764098037
  362  163  HP  111.93916084105419  128.92198946972437  109.53365325977663
  363  164  HP  194.19289485305296  80.43881874294199  111.38955827002914
  364  165  HP  178.3462489886537  106.21090343147317  94.78024293371804
  365  166  HP  112.01170583285635  106.53275803724148  92.31110568599667
  366  167  HP  105.37319882576425  104.30511866871957  86.57060233914801
  367  168  HP  148.49526159151026  91.10905410516929  87.05952547903338
  368  169  HP  94.41460412721061  102.0480245859258  96.81301358898489
  369  170  HP  40.89041550686823  146.3655522894956  134.6909717166615
  370  171  HP  147.94475991451483  150.0171930438433  75.52446493556658
  371  172  HP  159.06612074931317  129.11150984686677  99.77299303104921
  372  173  HP  135.3181268687327  69.95350527440581  132.10209864140336
  373  174  HP  62.23740069177002  89.27174361451036  49.402936153800056
  374  175  HP  63.25656911520521  62.32748058454492  26.751525126996327
  375  176  HP  78.53863040829893  136.1668680899897  76.99701537298374
  376  177  HP  175.1390586514137  138.7884474933724  54.35780867551405
  377  178  HP  99.48026883552787  57.172657076846754  166.65893231491606
  378  179  HP  141.12213743017287  156.398665869812  121.18732983480925
  379  180  HP  75.8013674669761  151.42634578081726  75.38410850116344
  380  181  HP  102.56712752982905  102.50646861240907  95.82145408074891
  381  182  HP  77.39967096221737  90.35266370336834  107.25015414804815
  382  183  HP  61.57289133827536  150.4472056718684  113.1805784527471
  383  184  HP  95.35296947734818  99.80956626565134  100.35566474926489
  384  185  HP  51.21846881157643  142.3512184083225  117.99523053332766
  385  186  HP  159.89883219474893  178.58599468012136  92.18360737477869
  386  187  HP  154.78099970769438  97.96335153376022  42.35737954220714
  387  188  HP  141.22961702497818  54.92261533038722  179.11423535262918
  388  189  HP  107.77426904199609  86.88406781722001  113.73934592045741
  389  190  HP  84.21725239535454  138.79635012103347  98.8910512517937
  390  191  HP  102.78685187116191  119.83535880072591  96.91186283290415
  391  192  HP  89.62548210619056  30.60477932792743  86.76516666728602
  392  193  HP  148.99930592711772  103.97594125736207  113.9964650620757
  393  194  HP  92.71539000639477  24.310779270247636  143.9164114173187
  394  195  HP  57.21903367078327  164.40203931769588  115.1571154267642
  395  196  HP  17.88182149945763  72.76087735750184  123.16481749490306
  396  197  HP  127.50554278388157  119.16859296886373  94.08113628025858
  397  198  HP  80.05838041958818  111.09448370546849  116.91057846151355
  398  199  HP  61.47455582448926  86.36194460249142  110.7389851929444
  399  200  HP  100.08326879874095  99.86733339002599  100.32959339921119
  400  201  HP  91.40279084675214  91.70839323821438  105.64003530926871
  401  202  HP  157.62858986377861  105.02543226771037  85.50504645754275
  402  203  HP  89.51207987965155  119.8708296755561  43.52842510107183
  403  204  HP  121.58076442911094  93.92562193728074  102.06321606869302
  404  205  HP  101.66384214236598  89.58162360533717  183.46932752050878
  405  206  HP  151.3230094763368  111.67328094228759  77.02855943580299
  406  207  HP  57.92962082431847  74.14628888794134  65.41588834289132
  407  208  HP  84.07707754680725  121.98170820612677  84.35391341816812
  408  209  HP  161.6388128929927  98.1274842165624  51.40631978795915
  409  210  HP  178.1314961186707  122.05769901552449  130.7364753548783
  410  211  HP  109.10897389873229  114.7741739040363  64.07656845250989
  411  212  HP  114.97041415776411  81.2209680854182  116.18149965758029
  412  213  HP  84.79667069757068  156.11235613406194  123.66150375830065
  413  214  HP  16.19764268751473  123.73543544280984  60.79862597723838
  414  215  HP  84.84181490327298  57.68599722489462  126.03931318290307
  415  216  HP  119.55258107697477  112.47889278016397  95.38317971938078
  416  217  HP  95.62737741228526  99.17394998377651  100.51396447827936
  417  218  HP  147.0768136665856  98.44957610356717  122.7272032122976
  418  219  HP  115.9386739084071  126.190258287289  94.66814462056621
  419  220  HP  101.44289309594097  108.52264799809933  96.05129587240066
  420  221  HP  70.8079764716565  79.69899909012241  68.24343766943012
  421  222  HP  44.97693309268529  74.23850220938785  172.08669605130447
  422  223  HP  83.79690114456838  143.72345854544565  110.50612606682333
  423  224  HP  40.31714526178862  79.91746630385259  105.72302757801619
  424  225  HP  153.31271773836733  90.88125390321622  81.27655959753594
  425  226  HP  109.43838333177555  96.49488934498878  106.88088339626105
  426  227  HP  47.51302142235507  83.73530553469712  114.61394646872134
  427  228  HP  96.83324134488802  84.48630865345646  65.00956041642894
  428  229  HP  95.97817727340292  115.2781716108684  106.90994042765541
  429  230  HP  87.62189789255207  94.83729413891727  107.03221736078761
  430  231  HP  164.68220344003527  43.473522883141406  119.2105181067352
  431  232  HP  165.06516361835787  39.77591455049873  101.12244137210963
  432  233  HP  26.607339835169498  117.08406370017329  74.85113301088107
  433  234  HP  86.45625190283793  161.46148440898372  75.3144240096911
  434  235  HP  120.46215458167183  34.29140094869693  148.56738374597842
  435  236  HP  73.04016730378001  131.33417222941458  70.56775024470207
  436  237  HP  80.45419092802221  91.40407386134915  113.77574042577258
  437  238  HP  103.25561663202359  92.28782235522498  89.55730955511703
  438  239  HP  150.0204354056536  96.96519982588796  81.36346065673133
  439  240  HP  68.79938454634922  47.1678269620609  175.50778421084186
  440  241  HP  114.59606160712359  86.04488327982187  88.42678066349954
  441  242  HP  99.3698955996495  99.83333316490594  99.72838042522476
  442  243  HP  89.63766658087278  85.5021642088671  118.22717590119578
  443  244  HP  69.5590503909303  80.04355519274851  120.30634908709138
  444  245  HP  75.91278071337621  122.6471513179637  28.06183604619791
  445  246  HP  143.54639480646674  35.42607518948205  74.91904495892695
  446  247  HP  115.34830480459208  142.99920562169407  83.4183158329248
  447  248  HP  160.58393193164906  134.0697537857517  76.14991711373906
  448  249  HP  73.85431974862709  20.61403372339153  58.334839203727476
  449  250  HP  129.20963732393807  114.40630596017829  108.74079164997372
  450  251  HP  95.25922358709374  93.1567041265285  109.75503483886739
  451  252  HP  127.35835257088591  23.43867466743646  46.097396236858756
  452  253  HP  99.5317702715405  97.96693184025321  97.5205752329761
  453  254  HP  110.5708418062492  83.35075387103097  73.46591311814795
  454  255  HP  134.2521991731432  111.13718891136492  104.39223802174205
  455  256  HP  101.17875629700852  95.23678425565708  96.56403125630946
  456  257  HP  80.19167546618583  195.3997221647212  82.03582866955779
  457  258  HP  112.99115897715168  125.73375340349847  101.33620615961338
  458  259  HP  102.34449912729863  91.86993355380069  104.18008390311097
  459  260  HP  120.89172804760514  140.4123121654251  75.62939206497998
  460  261  HP  136.53741027087432  62.974447342284115  138.06779067345178
  461  262  HP  50.56574256345369  34.793881770360926  102.83392623589013
  462  263  HP  83.97272209792249  96.70103810247751  99.24636931990766
  463  264  HP  135.73009963570615  117.50622951596212  82.79004332173157
  464  265  HP  101.56347334354015  101.60728960591577  100.03641529027844
  465  266  HP  100.76521695843984  122.85781152253902  112.50580677837488
  466  267  HP  75.41752449380107  44.952781368168054  93.51229411607049
  467  268  HP  109.72077777904343  76.68577241406851  111.99758797286789
  468  269  HP  140.95052098529894  90.57287573202419  125.47523166593564
  469  270  HP  108.29224603531304  121.93646506027864  74.828369819702
  470  271  HP  36.255589132899296  111.35401415262965  80.86049887387342
  471  272  HP  30.843777105952725  148.65798590200706  85.06129545945677
  472  273  HP  68.76733840389191  65.66554510450524  37.536596703839
  473  274  HP  106.96605284809752  104.77089954125101  71.81004443224074
  474  275  HP  97.08306222397965  100.2633907693696  80.62774193590872
  475  276  HP  104.33172099734614  95.46811529194336  98.28370806135541
  476  277  HP  71.62548437459287  99.16017995246092  129.08547149270078
  477  278  HP  80.19327887284689  3.7093602371880223  106.72049341016796
  478  279  HP  157.653758482547  92.99436465333432  115.74251086586364
  479  280  HP  163.1384266916198  82.62702622131044  155.6743405324761
  480  281  HP  95.52264539147554  67.74506622337782  120.6385187464143
  481  282  HP  161.59391037701414  86.14184596774841  75.92193222977568
  482  283  HP  102.54650951067241  101.89671634056754  94.96256856544468
  483  284  HP  82.74362616214769  60.98960516466175  47.18742274490012
  484  285  HP  155.24651344640958  126.22558641207951  98.48315596206534
  485  286  HP  131.25412117047148  110.81914990145026  54.47939863979719
  486  287  HP  126.64809979764324  80.24428245370082  90.21014787332338
  487  288  HP  75.77989027602439  52.041479714608705  62.602263321141734
  488  289  HP  99.20838702792066  66.20130223872117  107.10707746999873
  489  290  HP  100.65471970958988  100.28188469022419  100.83217769608105
  490  291  HP  131.37097655161008  88.54314547314895  110.85319484487427
  491  292  HP  111.81656405893942  84.94009608712935  89.95773587225656
  492  293  HP  157.5866293191132  101.85558801595229  82.45892505987544
  493  294  HP  130.6535632221977  137.4973330682515  107.41250863800181
  494  295  HP  77.95420998297803  69.70561268288002  158.09832226391336
  495  296  HP  92.78293761685487  81.93391589528464  106.00852110427908
  496  297  HP  116.90508958143354  51.73979408971292  109.24094779160583
  497  298  HP  121.730740103973  132.87554812799755  139.56772239975064
  498  299  HP  101.71899822514688  117.83038904189178  99.99011412663265
  499  300  HP  94.41745528214393  123.09530979436121  48.297989754321904
  500  301  HP  116.01862226638644  92.97353883456405  120.14226915107457
  501  302  HP  69.27402378985076  120.90316435150987  144.14987283106845
  502  303  HP  105.58050386480913  132.97572769747114  92.41626484125757
  503  304  HP  139.26304889753388  134.53532644565567  80.34515523088817
  504  305  HP  88.6782199252334  94.79661884341348  82.5700391296086
  505  306  HP  113.63775620375934  137.82256150364944  20.203352459743954
  506  307  HP  68.8538379334836  120.45347449488605  108.56321386971474
  507  308  HP  101.23463657839257  107.29722889554752  82.43742299136967
  508  309  HP  98.96048999470236  100.57329427408825  100.42766797144331
  509  310  HP  127.07092442360735  74.76053162448372  18.569813037905263
  510  311  HP  105.73024343924806  81.16429978265629  110.58831177775089
  511  312  HP  71.38335659927553  163.85108123767802  80.69642565790292
  512  313  HP  96.91452452039816  97.36161147851057  103.45492885537301
  513  314  HP  137.92657040761384  81.62551623538806  179.22386719382678
  514  315  HP  99.90414981840114  99.90509132631317  146.4047245991557
  515  316  HP  99.31232197539566  101.43992226318824  100.03462645604232
  516  317  HP  143.87543124777287  129.15975904859764  156.67010135771545
  517  318  HP  161.83469776851481  43.522549060865714  87.01776504138331
  518  319  HP  113.18938679089862  103.14602653235795  91.98821912433395
  519  320  HP  103.68221927503969  110.49338758746944  96.73381289437063
  520  321  HP  64.01116485235272  70.07348091973769  80.00005669290334
  521  322  HP  101.8718284216122  87.52109725393154  83.7478455457819