LAMMPS (17 Apr 2024)
OMP_NUM_THREADS environment is not set. Defaulting to 1 thread. (src/comm.cpp:98)
  using 1 OpenMP thread(s) per MPI task
Reading data file ...
  orthogonal box = (0 0 0) to (200 200 200)
  1 by 2 by 5 MPI processor grid
  reading atom labelmap ...
  reading bond labelmap ...
  reading angle labelmap ...
  reading dihedral labelmap ...
  reading atoms ...
  1200 atoms
  scanning bonds ...
  6 = max bonds/atom
  scanning angles ...
  1 = max angles/atom
  scanning dihedrals ...
  1 = max dihedrals/atom
  orthogonal box = (0 0 0) to (200 200 200)
  1 by 2 by 5 MPI processor grid
  reading bonds ...
  199 bonds
  reading angles ...
  198 angles
  reading dihedrals ...
  197 dihedrals
Finding 1-2 1-3 1-4 neighbors ...
  special bond factors lj:    0        0        0       
  special bond factors coul:  0        0        0       
     2 = max # of 1-2 neighbors
     2 = max # of 1-3 neighbors
     4 = max # of 1-4 neighbors
    11 = max # of special neighbors
  special bonds CPU = 0.000 seconds
  read_data CPU = 0.006 seconds
Finding 1-2 1-3 1-4 neighbors ...
  special bond factors lj:    0        0        0.5     
  special bond factors coul:  0        0        0.5     
     2 = max # of 1-2 neighbors
     2 = max # of 1-3 neighbors
     4 = max # of 1-4 neighbors
    11 = max # of special neighbors
  special bonds CPU = 0.000 seconds
200 atoms in group chromatin
79 atoms in group Mtype
30 atoms in group cenH
3 atoms in group promoter
3 atoms in group promo_and_poly
8 atoms in group yfp
6 atoms in group mcherry
170 atoms in group outOFCenH
79 atoms in group M_Atoms
197 atoms in group NotPromoter
14 atoms in group TranscriptionReactionGroup
1000 atoms in group swi6
1200 atoms in group atoms_mobile
Generated 0 of 6 mixed pair_coeff terms from geometric mixing rule
Neighbor list info ...
  update: every = 1 steps, delay = 0 steps, check = yes
  max neighbors/atom: 2000, page size: 100000
  master list distance cutoff = 10
  ghost atom cutoff = 10
  binsize = 5, bins = 40 40 40
  2 neighbor lists, perpetual/occasional/extra = 1 1 0
  (1) pair morse, perpetual
      attributes: half, newton on
      pair build: half/bin/newton
      stencil: half/bin/3d
      bin: standard
  (2) compute coord/atom, occasional
      attributes: full, newton on
      pair build: full/bin
      stencil: full/bin/3d
      bin: standard
Setting up Verlet run ...
  Unit style    : lj
  Current step  : 0
  Time step     : 0.01
Per MPI rank memory allocation (min/avg/max) = 8.53 | 8.715 | 8.99 Mbytes
   Step          Temp     
         0   1            
     10000   0.97550644   
Loop time of 0.766416 on 10 procs for 10000 steps with 1200 atoms

Performance: 11273249.021 tau/day, 13047.742 timesteps/s, 15.657 Matom-step/s
99.9% CPU use with 10 MPI tasks x 1 OpenMP threads

MPI task timing breakdown:
Section |  min time  |  avg time  |  max time  |%varavg| %total
---------------------------------------------------------------
Pair    | 0.0016066  | 0.10931    | 0.44619    |  43.3 | 14.26
Bond    | 0.0007207  | 0.017809   | 0.058595   |  16.2 |  2.32
Neigh   | 0.054586   | 0.055394   | 0.056738   |   0.3 |  7.23
Comm    | 0.092944   | 0.38599    | 0.5537     |  24.0 | 50.36
Output  | 1.44e-05   | 2.354e-05  | 5.15e-05   |   0.0 |  0.00
Modify  | 0.0091415  | 0.047692   | 0.11507    |  16.8 |  6.22
Other   |            | 0.1502     |            |       | 19.60

Nlocal:            120 ave         294 max          16 min
Histogram: 4 0 1 0 1 2 0 0 1 1
Nghost:            106 ave         263 max          24 min
Histogram: 4 0 1 3 0 0 0 0 0 2
Neighs:          886.4 ave        3519 max           2 min
Histogram: 6 0 0 1 0 2 0 0 0 1
FullNghs:            0 ave           0 max           0 min
Histogram: 10 0 0 0 0 0 0 0 0 0

Total # of neighbors = 8864
Ave neighs/atom = 7.3866667
Ave special neighs/atom = 0.99
Neighbor list builds = 457
Dangerous builds = 0
System init for write_restart ...
Generated 0 of 6 mixed pair_coeff terms from geometric mixing rule
Read molecule template AM_post:
# This is a molecule template for molecule 1
  1 molecules
  0 fragments
  2 atoms with max type 2
  0 bonds with max type 0
  0 angles with max type 0
  0 dihedrals with max type 0
  0 impropers with max type 0
Read molecule template AM_pre:
# This is a molecule template for molecule 1
  1 molecules
  0 fragments
  2 atoms with max type 3
  0 bonds with max type 0
  0 angles with max type 0
  0 dihedrals with max type 0
  0 impropers with max type 0
Read molecule template AU_post:
# This is a molecule template for molecule 1
  1 molecules
  0 fragments
  2 atoms with max type 1
  0 bonds with max type 0
  0 angles with max type 0
  0 dihedrals with max type 0
  0 impropers with max type 0
Read molecule template AU_pre:
# This is a molecule template for molecule 1
  1 molecules
  0 fragments
  2 atoms with max type 2
  0 bonds with max type 0
  0 angles with max type 0
  0 dihedrals with max type 0
  0 impropers with max type 0
Read molecule template MA_post:
# This is a molecule template for molecule 1
  1 molecules
  0 fragments
  2 atoms with max type 3
  0 bonds with max type 0
  0 angles with max type 0
  0 dihedrals with max type 0
  0 impropers with max type 0
Read molecule template MA_pre:
# This is a molecule template for molecule 1
  1 molecules
  0 fragments
  2 atoms with max type 3
  0 bonds with max type 0
  0 angles with max type 0
  0 dihedrals with max type 0
  0 impropers with max type 0
Read molecule template MU_post:
# This is a molecule template for molecule 1
  1 molecules
  0 fragments
  2 atoms with max type 3
  0 bonds with max type 0
  0 angles with max type 0
  0 dihedrals with max type 0
  0 impropers with max type 0
Read molecule template MU_pre:
# This is a molecule template for molecule 1
  1 molecules
  0 fragments
  2 atoms with max type 3
  0 bonds with max type 0
  0 angles with max type 0
  0 dihedrals with max type 0
  0 impropers with max type 0
dynamic group bond_react_MASTER_group defined
60 atoms in group typeA
61 atoms in group typeU
79 atoms in group typeM
1000 atoms in group typeSwi6

CITE-CITE-CITE-CITE-CITE-CITE-CITE-CITE-CITE-CITE-CITE-CITE-CITE

Your simulation uses code contributions which should be cited:
- fix bond/react: reacter.org doi:10.1016/j.polymer.2017.09.038, doi:10.1021/acs.macromol.0c02012
The log file lists these citations in BibTeX format.

CITE-CITE-CITE-CITE-CITE-CITE-CITE-CITE-CITE-CITE-CITE-CITE-CITE

Generated 0 of 6 mixed pair_coeff terms from geometric mixing rule
Neighbor list info ...
  update: every = 1 steps, delay = 0 steps, check = yes
  max neighbors/atom: 2000, page size: 100000
  master list distance cutoff = 10
  ghost atom cutoff = 10
  binsize = 5, bins = 40 40 40
  3 neighbor lists, perpetual/occasional/extra = 1 2 0
  (1) pair morse, perpetual
      attributes: half, newton on
      pair build: half/bin/newton
      stencil: half/bin/3d
      bin: standard
  (2) compute coord/atom, occasional
      attributes: full, newton on
      pair build: full/bin
      stencil: full/bin/3d
      bin: standard
  (3) fix bond/react, occasional, copy from (1)
      attributes: half, newton on
      pair build: copy
      stencil: none
      bin: none
Setting up Verlet run ...
  Unit style    : lj
  Current step  : 10000
  Time step     : 0.001
Per MPI rank memory allocation (min/avg/max) = 9.626 | 9.907 | 10.1 Mbytes
---
keywords: ['Step', 'Temp', 'c_R2[0]', 'f_4[1]', 'f_4[2]', 'f_4[3]', 'f_4[4]', ]
data:
  - [10000, 0.975506443907546, 38.1258749191996, 0, 0, 0, 0, ]
reacted_atom_IDs: reacMU 192 187
reacted_atom_IDs: reacMU 31 37
reacted_atom_IDs: reacMU 2 25
reacted_atom_IDs: reacMU 174 150
  - [20000, 0.983011665610496, 36.8676372958174, 1, 1, 1, 1, ]
reacted_atom_IDs: reacMU 181 164
reacted_atom_IDs: reacMU 17 37
reacted_atom_IDs: reacMU 36 20
reacted_atom_IDs: reacMU 19 6
  - [30000, 1.04556299434487, 35.6522574448439, 2, 2, 2, 2, ]
