# Initialisation file of the particles

80  atoms
79  bonds
78  angles
77  dihedrals

3  atom types
1  bond types
1  angle types
1  dihedral types

0.0000   200.0000 xlo xhi 
0.0000   200.0000 ylo yhi 
0.0000   200.0000 zlo zhi

Atom Type Labels

1    A
2    U
3    M

Bond Type Labels

1    Normal
Angle Type Labels

1    Normal

Dihedral Type Labels

1    Normal

Masses

1    1.00 
2    1.00 
3    1.00 

Atoms

  1  1  U  0.0  0.0  0.0
  2  1  A  1.5  1.5  1.5
  3  1  U  3.0  3.0  3.0
  4  1  U  4.5  4.5  4.5
  5  1  U  6.0  6.0  6.0
  6  1  U  7.5  7.5  7.5
  7  1  M  9.0  9.0  9.0
  8  1  A  10.5  10.5  10.5
  9  1  U  12.0  12.0  12.0
  10  1  A  13.5  13.5  13.5
  11  1  U  15.0  15.0  15.0
  12  1  A  16.5  16.5  16.5
  13  1  A  18.0  18.0  18.0
  14  1  M  19.5  19.5  19.5
  15  1  M  21.0  21.0  21.0
  16  1  M  22.5  22.5  22.5
  17  1  A  24.0  24.0  24.0
  18  1  M  25.5  25.5  25.5
  19  1  M  27.0  27.0  27.0
  20  1  A  28.5  28.5  28.5
  21  1  A  30.0  30.0  30.0
  22  1  A  31.5  31.5  31.5
  23  1  A  33.0  33.0  33.0
  24  1  A  34.5  34.5  34.5
  25  1  U  36.0  36.0  36.0
  26  1  M  37.5  37.5  37.5
  27  1  U  39.0  39.0  39.0
  28  1  U  40.5  40.5  40.5
  29  1  M  42.0  42.0  42.0
  30  1  A  43.5  43.5  43.5
  31  1  U  45.0  45.0  45.0
  32  1  A  46.5  46.5  46.5
  33  1  A  48.0  48.0  48.0
  34  1  U  49.5  49.5  49.5
  35  1  U  51.0  51.0  51.0
  36  1  M  52.5  52.5  52.5
  37  1  M  54.0  54.0  54.0
  38  1  A  55.5  55.5  55.5
  39  1  U  57.0  57.0  57.0
  40  1  A  58.5  58.5  58.5
  41  1  M  60.0  60.0  60.0
  42  1  A  61.5  61.5  61.5
  43  1  M  63.0  63.0  63.0
  44  1  U  64.5  64.5  64.5
  45  1  M  66.0  66.0  66.0
  46  1  U  67.5  67.5  67.5
  47  1  M  69.0  69.0  69.0
  48  1  M  70.5  70.5  70.5
  49  1  U  72.0  72.0  72.0
  50  1  U  73.5  73.5  73.5
  51  1  M  75.0  75.0  75.0
  52  1  M  76.5  76.5  76.5
  53  1  U  78.0  78.0  78.0
  54  1  M  79.5  79.5  79.5
  55  1  M  81.0  81.0  81.0
  56  1  U  82.5  82.5  82.5
  57  1  U  84.0  84.0  84.0
  58  1  M  85.5  85.5  85.5
  59  1  M  87.0  87.0  87.0
  60  1  A  88.5  88.5  88.5
  61  1  A  90.0  90.0  90.0
  62  1  U  91.5  91.5  91.5
  63  1  M  93.0  93.0  93.0
  64  1  M  94.5  94.5  94.5
  65  1  A  96.0  96.0  96.0
  66  1  M  97.5  97.5  97.5
  67  1  A  99.0  99.0  99.0
  68  1  U  100.5  100.5  100.5
  69  1  M  102.0  102.0  102.0
  70  1  A  103.5  103.5  103.5
  71  1  U  105.0  105.0  105.0
  72  1  M  106.5  106.5  106.5
  73  1  M  108.0  108.0  108.0
  74  1  A  109.5  109.5  109.5
  75  1  M  111.0  111.0  111.0
  76  1  M  112.5  112.5  112.5
  77  1  U  114.0  114.0  114.0
  78  1  A  115.5  115.5  115.5
  79  1  U  117.0  117.0  117.0
  80  1  M  118.5  118.5  118.5

Bonds

  1  Normal  1  2
  2  Normal  2  3
  3  Normal  3  4
  4  Normal  4  5
  5  Normal  5  6
  6  Normal  6  7
  7  Normal  7  8
  8  Normal  8  9
  9  Normal  9  10
  10  Normal  10  11
  11  Normal  11  12
  12  Normal  12  13
  13  Normal  13  14
  14  Normal  14  15
  15  Normal  15  16
  16  Normal  16  17
  17  Normal  17  18
  18  Normal  18  19
  19  Normal  19  20
  20  Normal  20  21
  21  Normal  21  22
  22  Normal  22  23
  23  Normal  23  24
  24  Normal  24  25
  25  Normal  25  26
  26  Normal  26  27
  27  Normal  27  28
  28  Normal  28  29
  29  Normal  29  30
  30  Normal  30  31
  31  Normal  31  32
  32  Normal  32  33
  33  Normal  33  34
  34  Normal  34  35
  35  Normal  35  36
  36  Normal  36  37
  37  Normal  37  38
  38  Normal  38  39
  39  Normal  39  40
  40  Normal  40  41
  41  Normal  41  42
  42  Normal  42  43
  43  Normal  43  44
  44  Normal  44  45
  45  Normal  45  46
  46  Normal  46  47
  47  Normal  47  48
  48  Normal  48  49
  49  Normal  49  50
  50  Normal  50  51
  51  Normal  51  52
  52  Normal  52  53
  53  Normal  53  54
  54  Normal  54  55
  55  Normal  55  56
  56  Normal  56  57
  57  Normal  57  58
  58  Normal  58  59
  59  Normal  59  60
  60  Normal  60  61
  61  Normal  61  62
  62  Normal  62  63
  63  Normal  63  64
  64  Normal  64  65
  65  Normal  65  66
  66  Normal  66  67
  67  Normal  67  68
  68  Normal  68  69
  69  Normal  69  70
  70  Normal  70  71
  71  Normal  71  72
  72  Normal  72  73
  73  Normal  73  74
  74  Normal  74  75
  75  Normal  75  76
  76  Normal  76  77
  77  Normal  77  78
  78  Normal  78  79
  79  Normal  79  80

Angles

  1  Normal  1  2  3
  2  Normal  2  3  4
  3  Normal  3  4  5
  4  Normal  4  5  6
  5  Normal  5  6  7
  6  Normal  6  7  8
  7  Normal  7  8  9
  8  Normal  8  9  10
  9  Normal  9  10  11
  10  Normal  10  11  12
  11  Normal  11  12  13
  12  Normal  12  13  14
  13  Normal  13  14  15
  14  Normal  14  15  16
  15  Normal  15  16  17
  16  Normal  16  17  18
  17  Normal  17  18  19
  18  Normal  18  19  20
  19  Normal  19  20  21
  20  Normal  20  21  22
  21  Normal  21  22  23
  22  Normal  22  23  24
  23  Normal  23  24  25
  24  Normal  24  25  26
  25  Normal  25  26  27
  26  Normal  26  27  28
  27  Normal  27  28  29
  28  Normal  28  29  30
  29  Normal  29  30  31
  30  Normal  30  31  32
  31  Normal  31  32  33
  32  Normal  32  33  34
  33  Normal  33  34  35
  34  Normal  34  35  36
  35  Normal  35  36  37
  36  Normal  36  37  38
  37  Normal  37  38  39
  38  Normal  38  39  40
  39  Normal  39  40  41
  40  Normal  40  41  42
  41  Normal  41  42  43
  42  Normal  42  43  44
  43  Normal  43  44  45
  44  Normal  44  45  46
  45  Normal  45  46  47
  46  Normal  46  47  48
  47  Normal  47  48  49
  48  Normal  48  49  50
  49  Normal  49  50  51
  50  Normal  50  51  52
  51  Normal  51  52  53
  52  Normal  52  53  54
  53  Normal  53  54  55
  54  Normal  54  55  56
  55  Normal  55  56  57
  56  Normal  56  57  58
  57  Normal  57  58  59
  58  Normal  58  59  60
  59  Normal  59  60  61
  60  Normal  60  61  62
  61  Normal  61  62  63
  62  Normal  62  63  64
  63  Normal  63  64  65
  64  Normal  64  65  66
  65  Normal  65  66  67
  66  Normal  66  67  68
  67  Normal  67  68  69
  68  Normal  68  69  70
  69  Normal  69  70  71
  70  Normal  70  71  72
  71  Normal  71  72  73
  72  Normal  72  73  74
  73  Normal  73  74  75
  74  Normal  74  75  76
  75  Normal  75  76  77
  76  Normal  76  77  78
  77  Normal  77  78  79
  78  Normal  78  79  80

Dihedrals

  1  Normal  1  2  3    4
  2  Normal  2  3  4    5
  3  Normal  3  4  5    6
  4  Normal  4  5  6    7
  5  Normal  5  6  7    8
  6  Normal  6  7  8    9
  7  Normal  7  8  9    10
  8  Normal  8  9  10    11
  9  Normal  9  10  11    12
  10  Normal  10  11  12    13
  11  Normal  11  12  13    14
  12  Normal  12  13  14    15
  13  Normal  13  14  15    16
  14  Normal  14  15  16    17
  15  Normal  15  16  17    18
  16  Normal  16  17  18    19
  17  Normal  17  18  19    20
  18  Normal  18  19  20    21
  19  Normal  19  20  21    22
  20  Normal  20  21  22    23
  21  Normal  21  22  23    24
  22  Normal  22  23  24    25
  23  Normal  23  24  25    26
  24  Normal  24  25  26    27
  25  Normal  25  26  27    28
  26  Normal  26  27  28    29
  27  Normal  27  28  29    30
  28  Normal  28  29  30    31
  29  Normal  29  30  31    32
  30  Normal  30  31  32    33
  31  Normal  31  32  33    34
  32  Normal  32  33  34    35
  33  Normal  33  34  35    36
  34  Normal  34  35  36    37
  35  Normal  35  36  37    38
  36  Normal  36  37  38    39
  37  Normal  37  38  39    40
  38  Normal  38  39  40    41
  39  Normal  39  40  41    42
  40  Normal  40  41  42    43
  41  Normal  41  42  43    44
  42  Normal  42  43  44    45
  43  Normal  43  44  45    46
  44  Normal  44  45  46    47
  45  Normal  45  46  47    48
  46  Normal  46  47  48    49
  47  Normal  47  48  49    50
  48  Normal  48  49  50    51
  49  Normal  49  50  51    52
  50  Normal  50  51  52    53
  51  Normal  51  52  53    54
  52  Normal  52  53  54    55
  53  Normal  53  54  55    56
  54  Normal  54  55  56    57
  55  Normal  55  56  57    58
  56  Normal  56  57  58    59
  57  Normal  57  58  59    60
  58  Normal  58  59  60    61
  59  Normal  59  60  61    62
  60  Normal  60  61  62    63
  61  Normal  61  62  63    64
  62  Normal  62  63  64    65
  63  Normal  63  64  65    66
  64  Normal  64  65  66    67
  65  Normal  65  66  67    68
  66  Normal  66  67  68    69
  67  Normal  67  68  69    70
  68  Normal  68  69  70    71
  69  Normal  69  70  71    72
  70  Normal  70  71  72    73
  71  Normal  71  72  73    74
  72  Normal  72  73  74    75
  73  Normal  73  74  75    76
  74  Normal  74  75  76    77
  75  Normal  75  76  77    78
  76  Normal  76  77  78    79
  77  Normal  77  78  79    80
