LAMMPS (17 Apr 2024)
OMP_NUM_THREADS environment is not set. Defaulting to 1 thread. (src/comm.cpp:98)
  using 1 OpenMP thread(s) per MPI task
Reading data file ...
  orthogonal box = (0 0 0) to (200 200 200)
  1 by 2 by 5 MPI processor grid
  reading atom labelmap ...
  reading bond labelmap ...
  reading angle labelmap ...
  reading dihedral labelmap ...
  reading atoms ...
  80 atoms
  scanning bonds ...
  6 = max bonds/atom
  scanning angles ...
  1 = max angles/atom
  scanning dihedrals ...
  1 = max dihedrals/atom
  orthogonal box = (0 0 0) to (200 200 200)
  1 by 2 by 5 MPI processor grid
  reading bonds ...
  79 bonds
  reading angles ...
  78 angles
  reading dihedrals ...
  77 dihedrals
Finding 1-2 1-3 1-4 neighbors ...
  special bond factors lj:    0        0        0       
  special bond factors coul:  0        0        0       
     2 = max # of 1-2 neighbors
     2 = max # of 1-3 neighbors
     4 = max # of 1-4 neighbors
    11 = max # of special neighbors
  special bonds CPU = 0.001 seconds
  read_data CPU = 0.007 seconds
Finding 1-2 1-3 1-4 neighbors ...
  special bond factors lj:    0        0        0.5     
  special bond factors coul:  0        0        0.5     
     2 = max # of 1-2 neighbors
     2 = max # of 1-3 neighbors
     4 = max # of 1-4 neighbors
    11 = max # of special neighbors
  special bonds CPU = 0.000 seconds
80 atoms in group chromatin
30 atoms in group Mtype
Generated 0 of 3 mixed pair_coeff terms from geometric mixing rule
Neighbor list info ...
  update: every = 1 steps, delay = 0 steps, check = yes
  max neighbors/atom: 2000, page size: 100000
  master list distance cutoff = 10
  ghost atom cutoff = 10
  binsize = 5, bins = 40 40 40
  2 neighbor lists, perpetual/occasional/extra = 1 1 0
  (1) pair morse, perpetual
      attributes: half, newton on
      pair build: half/bin/newton
      stencil: half/bin/3d
      bin: standard
  (2) compute coord/atom, occasional
      attributes: full, newton on
      pair build: full/bin
      stencil: full/bin/3d
      bin: standard
Setting up Verlet run ...
  Unit style    : lj
  Current step  : 0
  Time step     : 0.01
Per MPI rank memory allocation (min/avg/max) = 8.396 | 8.613 | 8.983 Mbytes
   Step          Temp     
         0   1            
     10000   1.0564765    
Loop time of 0.283104 on 10 procs for 10000 steps with 80 atoms

Performance: 30518844.733 tau/day, 35322.737 timesteps/s, 2.826 Matom-step/s
99.7% CPU use with 10 MPI tasks x 1 OpenMP threads

MPI task timing breakdown:
Section |  min time  |  avg time  |  max time  |%varavg| %total
---------------------------------------------------------------
Pair    | 0.0003067  | 0.013483   | 0.1249     |  32.0 |  4.76
Bond    | 0.0003897  | 0.0083257  | 0.071139   |  23.0 |  2.94
Neigh   | 0.011098   | 0.011653   | 0.011984   |   0.3 |  4.12
Comm    | 0.0030825  | 0.034378   | 0.2148     |  34.4 | 12.14
Output  | 1.07e-05   | 3.738e-05  | 6.25e-05   |   0.0 |  0.01
Modify  | 0.0007587  | 0.0047208  | 0.034037   |  14.3 |  1.67
Other   |            | 0.2105     |            |       | 74.36

Nlocal:              8 ave          79 max           0 min
Histogram: 9 0 0 0 0 0 0 0 0 1
Nghost:            3.7 ave          19 max           0 min
Histogram: 8 0 0 0 0 0 0 0 1 1
Neighs:             76 ave         760 max           0 min
Histogram: 9 0 0 0 0 0 0 0 0 1
FullNghs:            0 ave           0 max           0 min
Histogram: 10 0 0 0 0 0 0 0 0 0

Total # of neighbors = 760
Ave neighs/atom = 9.5
Ave special neighs/atom = 5.85
Neighbor list builds = 260
Dangerous builds = 0
System init for write_restart ...
Generated 0 of 3 mixed pair_coeff terms from geometric mixing rule
Read molecule template AM_post:
# This is a molecule template for molecule 1
  1 molecules
  0 fragments
  2 atoms with max type 2
  0 bonds with max type 0
  0 angles with max type 0
  0 dihedrals with max type 0
  0 impropers with max type 0
Read molecule template AM_pre:
# This is a molecule template for molecule 1
  1 molecules
  0 fragments
  2 atoms with max type 3
  0 bonds with max type 0
  0 angles with max type 0
  0 dihedrals with max type 0
  0 impropers with max type 0
Read molecule template AU_post:
# This is a molecule template for molecule 1
  1 molecules
  0 fragments
  2 atoms with max type 1
  0 bonds with max type 0
  0 angles with max type 0
  0 dihedrals with max type 0
  0 impropers with max type 0
Read molecule template AU_pre:
# This is a molecule template for molecule 1
  1 molecules
  0 fragments
  2 atoms with max type 2
  0 bonds with max type 0
  0 angles with max type 0
  0 dihedrals with max type 0
  0 impropers with max type 0
Read molecule template MA_post:
# This is a molecule template for molecule 1
  1 molecules
  0 fragments
  2 atoms with max type 3
  0 bonds with max type 0
  0 angles with max type 0
  0 dihedrals with max type 0
  0 impropers with max type 0
Read molecule template MA_pre:
# This is a molecule template for molecule 1
  1 molecules
  0 fragments
  2 atoms with max type 3
  0 bonds with max type 0
  0 angles with max type 0
  0 dihedrals with max type 0
  0 impropers with max type 0
Read molecule template MU_post:
# This is a molecule template for molecule 1
  1 molecules
  0 fragments
  2 atoms with max type 3
  0 bonds with max type 0
  0 angles with max type 0
  0 dihedrals with max type 0
  0 impropers with max type 0
Read molecule template MU_pre:
# This is a molecule template for molecule 1
  1 molecules
  0 fragments
  2 atoms with max type 3
  0 bonds with max type 0
  0 angles with max type 0
  0 dihedrals with max type 0
  0 impropers with max type 0
dynamic group bond_react_MASTER_group defined
24 atoms in group typeA
26 atoms in group typeU
30 atoms in group typeM

CITE-CITE-CITE-CITE-CITE-CITE-CITE-CITE-CITE-CITE-CITE-CITE-CITE

Your simulation uses code contributions which should be cited:
- fix bond/react: reacter.org doi:10.1016/j.polymer.2017.09.038, doi:10.1021/acs.macromol.0c02012
The log file lists these citations in BibTeX format.

CITE-CITE-CITE-CITE-CITE-CITE-CITE-CITE-CITE-CITE-CITE-CITE-CITE

Generated 0 of 3 mixed pair_coeff terms from geometric mixing rule
Neighbor list info ...
  update: every = 1 steps, delay = 0 steps, check = yes
  max neighbors/atom: 2000, page size: 100000
  master list distance cutoff = 10
  ghost atom cutoff = 10
  binsize = 5, bins = 40 40 40
  3 neighbor lists, perpetual/occasional/extra = 1 2 0
  (1) pair morse, perpetual
      attributes: half, newton on
      pair build: half/bin/newton
      stencil: half/bin/3d
      bin: standard
  (2) compute coord/atom, occasional
      attributes: full, newton on
      pair build: full/bin
      stencil: full/bin/3d
      bin: standard
  (3) fix bond/react, occasional, copy from (1)
      attributes: half, newton on
      pair build: copy
      stencil: none
      bin: none
Setting up Verlet run ...
  Unit style    : lj
  Current step  : 10000
  Time step     : 0.001
Per MPI rank memory allocation (min/avg/max) = 8.712 | 8.926 | 9.295 Mbytes
---
keywords: ['Step', 'Temp', 'c_R2[0]', 'f_4[1]', 'f_4[2]', 'f_4[3]', 'f_4[4]', ]
data:
  - [10000, 1.05647650202109, 16.2536075166501, 0, 0, 0, 0, ]
  - [20000, 1.21397771087946, 15.5712069121022, 0, 0, 0, 0, ]
  - [30000, 0.856009586184164, 15.346682224626, 0, 0, 0, 0, ]
  - [40000, 1.0871974658292, 14.6372410550695, 0, 0, 0, 0, ]
  - [50000, 1.04911983770468, 14.478207972733, 0, 0, 0, 0, ]
  - [60000, 0.903893526118785, 14.6106980626302, 0, 0, 0, 0, ]
  - [70000, 1.13137784128964, 14.3645328933863, 0, 0, 0, 0, ]
reacted_atom_IDs: reacMU 38 34
  - [80000, 0.959515202183621, 14.1208312329947, 0, 1, 0, 0, ]
  - [90000, 1.24588166059758, 14.556303806676, 0, 1, 0, 0, ]
  - [100000, 0.922845480043172, 14.3931073689028, 0, 1, 0, 0, ]
  - [110000, 0.958603788610673, 14.6605574943506, 0, 1, 0, 0, ]
  - [120000, 0.91913500795028, 14.8067992230667, 0, 1, 0, 0, ]
  - [130000, 1.05745353140992, 14.029697046544, 0, 1, 0, 0, ]
  - [140000, 1.00609024336613, 14.5156726287078, 0, 1, 0, 0, ]
  - [150000, 0.96139016071239, 14.4315511048997, 0, 1, 0, 0, ]
  - [160000, 0.907858085717665, 14.5286334923199, 0, 1, 0, 0, ]
  - [170000, 1.12563131296057, 14.304244848017, 0, 1, 0, 0, ]
  - [180000, 1.05111393770431, 13.858156815211, 0, 1, 0, 0, ]
  - [190000, 1.01762028280406, 13.3918587057088, 0, 1, 0, 0, ]
  - [200000, 1.02109044576642, 13.3181751467909, 0, 1, 0, 0, ]
  - [210000, 1.06678482525928, 13.5638305967794, 0, 1, 0, 0, ]
  - [220000, 1.00477226969778, 13.8742087565984, 0, 1, 0, 0, ]
  - [230000, 0.903502498165699, 14.0074774396636, 0, 1, 0, 0, ]
  - [240000, 0.965684744963969, 14.2149982420224, 0, 1, 0, 0, ]
