# Initialisation file of the particles

2210  atoms
229  bonds
198  angles
197  dihedrals

10  atom types
3  bond types
1  angle types
1  dihedral types

0.0000   500.0000 xlo xhi 
0.0000   500.0000 ylo yhi 
0.0000   500.0000 zlo zhi

Atom Type Labels

1    A
2    U
3    M
4    N
5    P
6    PU
7    NA
8    NM
9    NU
10    HP

Bond Type Labels

1    Normal
2    MM
3    PolyPromoter

Angle Type Labels

1    Normal

Dihedral Type Labels

1    Normal

Masses

1    1.00 
2    1.00 
3    1.00 
4    1.00 
5    1.00 
6    1.00 
7    1.00 
8    1.00 
9    1.00 
10    1.00 

Atoms

  1  1  M  0.0  0.0  0.0
  2  1  U  1.2  1.2  1.2
  3  1  U  2.4  2.4  2.4
  4  1  M  3.5999999999999996  3.5999999999999996  3.5999999999999996
  5  1  M  4.8  4.8  4.8
  6  1  U  6.0  6.0  6.0
  7  1  U  7.199999999999999  7.199999999999999  7.199999999999999
  8  1  U  8.4  8.4  8.4
  9  1  A  9.6  9.6  9.6
  10  1  A  10.799999999999999  10.799999999999999  10.799999999999999
  11  1  A  12.0  12.0  12.0
  12  1  U  13.2  13.2  13.2
  13  1  A  14.399999999999999  14.399999999999999  14.399999999999999
  14  1  M  15.6  15.6  15.6
  15  1  M  16.8  16.8  16.8
  16  1  A  18.0  18.0  18.0
  17  1  M  19.2  19.2  19.2
  18  1  A  20.4  20.4  20.4
  19  1  M  21.599999999999998  21.599999999999998  21.599999999999998
  20  1  M  22.8  22.8  22.8
  21  1  M  24.0  24.0  24.0
  22  1  A  25.2  25.2  25.2
  23  1  A  26.4  26.4  26.4
  24  1  M  27.599999999999998  27.599999999999998  27.599999999999998
  25  1  U  28.799999999999997  28.799999999999997  28.799999999999997
  26  1  U  30.0  30.0  30.0
  27  1  U  31.2  31.2  31.2
  28  1  M  32.4  32.4  32.4
  29  1  M  33.6  33.6  33.6
  30  1  U  34.8  34.8  34.8
  31  1  A  36.0  36.0  36.0
  32  1  A  37.199999999999996  37.199999999999996  37.199999999999996
  33  1  U  38.4  38.4  38.4
  34  1  U  39.6  39.6  39.6
  35  1  A  40.8  40.8  40.8
  36  1  A  42.0  42.0  42.0
  37  1  U  43.199999999999996  43.199999999999996  43.199999999999996
  38  1  M  44.4  44.4  44.4
  39  1  U  45.6  45.6  45.6
  40  1  U  46.8  46.8  46.8
  41  1  M  48.0  48.0  48.0
  42  1  U  49.199999999999996  49.199999999999996  49.199999999999996
  43  1  M  50.4  50.4  50.4
  44  1  M  51.6  51.6  51.6
  45  1  U  52.8  52.8  52.8
  46  1  M  54.0  54.0  54.0
  47  1  A  55.199999999999996  55.199999999999996  55.199999999999996
  48  1  A  56.4  56.4  56.4
  49  1  M  57.599999999999994  57.599999999999994  57.599999999999994
  50  1  A  58.8  58.8  58.8
  51  1  U  60.0  60.0  60.0
  52  1  U  61.199999999999996  61.199999999999996  61.199999999999996
  53  1  U  62.4  62.4  62.4
  54  1  A  63.599999999999994  63.599999999999994  63.599999999999994
  55  1  M  64.8  64.8  64.8
  56  1  A  66.0  66.0  66.0
  57  1  U  67.2  67.2  67.2
  58  1  M  68.39999999999999  68.39999999999999  68.39999999999999
  59  1  A  69.6  69.6  69.6
  60  1  M  70.8  70.8  70.8
  61  1  A  72.0  72.0  72.0
  62  1  A  73.2  73.2  73.2
  63  1  A  74.39999999999999  74.39999999999999  74.39999999999999
  64  1  U  75.6  75.6  75.6
  65  1  U  76.8  76.8  76.8
  66  1  M  78.0  78.0  78.0
  67  1  M  79.2  79.2  79.2
  68  1  U  80.39999999999999  80.39999999999999  80.39999999999999
  69  1  U  81.6  81.6  81.6
  70  1  U  82.8  82.8  82.8
  71  1  U  84.0  84.0  84.0
  72  1  U  85.2  85.2  85.2
  73  1  A  86.39999999999999  86.39999999999999  86.39999999999999
  74  1  A  87.6  87.6  87.6
  75  1  U  88.8  88.8  88.8
  76  1  M  90.0  90.0  90.0
  77  1  M  91.2  91.2  91.2
  78  1  U  92.39999999999999  92.39999999999999  92.39999999999999
  79  1  M  93.6  93.6  93.6
  80  1  M  94.8  94.8  94.8
  81  1  A  96.0  96.0  96.0
  82  1  A  97.2  97.2  97.2
  83  1  A  98.39999999999999  98.39999999999999  98.39999999999999
  84  1  M  99.6  99.6  99.6
  85  1  A  100.8  100.8  100.8
  86  1  M  102.0  102.0  102.0
  87  1  A  103.2  103.2  103.2
  88  1  M  104.39999999999999  104.39999999999999  104.39999999999999
  89  1  M  105.6  105.6  105.6
  90  1  M  106.8  106.8  106.8
  91  1  U  108.0  108.0  108.0
  92  1  A  109.2  109.2  109.2
  93  1  U  110.39999999999999  110.39999999999999  110.39999999999999
  94  1  U  111.6  111.6  111.6
  95  1  A  112.8  112.8  112.8
  96  1  M  114.0  114.0  114.0
  97  1  M  115.19999999999999  115.19999999999999  115.19999999999999
  98  1  M  116.39999999999999  116.39999999999999  116.39999999999999
  99  1  A  117.6  117.6  117.6
  100  1  U  118.8  118.8  118.8
  101  1  M  120.0  120.0  120.0
  102  1  U  121.19999999999999  121.19999999999999  121.19999999999999
  103  1  U  122.39999999999999  122.39999999999999  122.39999999999999
  104  1  A  123.6  123.6  123.6
  105  1  M  124.8  124.8  124.8
  106  1  U  126.0  126.0  126.0
  107  1  U  127.19999999999999  127.19999999999999  127.19999999999999
  108  1  A  128.4  128.4  128.4
  109  1  U  129.6  129.6  129.6
  110  1  U  130.79999999999998  130.79999999999998  130.79999999999998
  111  1  U  132.0  132.0  132.0
  112  1  A  133.2  133.2  133.2
  113  1  M  134.4  134.4  134.4
  114  1  U  135.6  135.6  135.6
  115  1  U  136.79999999999998  136.79999999999998  136.79999999999998
  116  1  U  138.0  138.0  138.0
  117  1  U  139.2  139.2  139.2
  118  1  A  140.4  140.4  140.4
  119  1  M  141.6  141.6  141.6
  120  1  M  142.79999999999998  142.79999999999998  142.79999999999998
  121  1  A  144.0  144.0  144.0
  122  1  U  145.2  145.2  145.2
  123  1  A  146.4  146.4  146.4
  124  1  M  147.6  147.6  147.6
  125  1  U  148.79999999999998  148.79999999999998  148.79999999999998
  126  1  M  150.0  150.0  150.0
  127  1  A  151.2  151.2  151.2
  128  1  A  152.4  152.4  152.4
  129  1  M  153.6  153.6  153.6
  130  1  A  154.79999999999998  154.79999999999998  154.79999999999998
  131  1  M  156.0  156.0  156.0
  132  1  M  157.2  157.2  157.2
  133  1  A  158.4  158.4  158.4
  134  1  A  159.6  159.6  159.6
  135  1  M  160.79999999999998  160.79999999999998  160.79999999999998
  136  1  U  162.0  162.0  162.0
  137  1  U  163.2  163.2  163.2
  138  1  M  164.4  164.4  164.4
  139  1  U  165.6  165.6  165.6
  140  1  U  166.79999999999998  166.79999999999998  166.79999999999998
  141  1  M  168.0  168.0  168.0
  142  1  A  169.2  169.2  169.2
  143  1  M  170.4  170.4  170.4
  144  1  M  171.6  171.6  171.6
  145  1  M  172.79999999999998  172.79999999999998  172.79999999999998
  146  1  U  174.0  174.0  174.0
  147  1  A  175.2  175.2  175.2
  148  1  A  176.4  176.4  176.4
  149  1  A  177.6  177.6  177.6
  150  1  U  178.79999999999998  178.79999999999998  178.79999999999998
  151  1  A  180.0  180.0  180.0
  152  1  U  181.2  181.2  181.2
  153  1  U  182.4  182.4  182.4
  154  1  A  183.6  183.6  183.6
  155  1  A  184.79999999999998  184.79999999999998  184.79999999999998
  156  1  U  186.0  186.0  186.0
  157  1  U  187.2  187.2  187.2
  158  1  U  188.4  188.4  188.4
  159  1  A  189.6  189.6  189.6
  160  1  U  190.79999999999998  190.79999999999998  190.79999999999998
  161  1  M  192.0  192.0  192.0
  162  1  M  193.2  193.2  193.2
  163  1  U  194.4  194.4  194.4
  164  1  A  195.6  195.6  195.6
  165  1  A  196.79999999999998  196.79999999999998  196.79999999999998
  166  1  M  198.0  198.0  198.0
  167  1  U  199.2  199.2  199.2
  168  1  A  200.4  200.4  200.4
  169  1  M  201.6  201.6  201.6
  170  1  A  202.79999999999998  202.79999999999998  202.79999999999998
  171  1  A  204.0  204.0  204.0
  172  1  U  205.2  205.2  205.2
  173  1  M  206.4  206.4  206.4
  174  1  M  207.6  207.6  207.6
  175  1  M  208.79999999999998  208.79999999999998  208.79999999999998
  176  1  M  210.0  210.0  210.0
  177  1  A  211.2  211.2  211.2
  178  1  A  212.4  212.4  212.4
  179  1  M  213.6  213.6  213.6
  180  1  A  214.79999999999998  214.79999999999998  214.79999999999998
  181  1  A  216.0  216.0  216.0
  182  1  A  217.2  217.2  217.2
  183  1  A  218.4  218.4  218.4
  184  1  U  219.6  219.6  219.6
  185  1  A  220.79999999999998  220.79999999999998  220.79999999999998
  186  1  M  222.0  222.0  222.0
  187  1  A  223.2  223.2  223.2
  188  1  M  224.4  224.4  224.4
  189  1  A  225.6  225.6  225.6
  190  1  M  226.79999999999998  226.79999999999998  226.79999999999998
  191  1  U  228.0  228.0  228.0
  192  1  M  229.2  229.2  229.2
  193  1  A  230.39999999999998  230.39999999999998  230.39999999999998
  194  1  U  231.6  231.6  231.6
  195  1  U  232.79999999999998  232.79999999999998  232.79999999999998
  196  1  M  234.0  234.0  234.0
  197  1  U  235.2  235.2  235.2
  198  1  A  236.39999999999998  236.39999999999998  236.39999999999998
  199  1  U  237.6  237.6  237.6
  200  1  M  238.79999999999998  238.79999999999998  238.79999999999998
  1201  1002  P  121.80129696239258  118.67913404084265  106.00744317861168
  1202  1003  P  110.65986637069076  124.00815539258446  107.08508118244727
  1203  1004  P  111.33034085359772  124.75723421332901  108.62514011116554
  1204  1005  P  127.29704558822513  110.16534747449458  120.10697752673148
  1205  1006  P  121.12243707752623  102.41974097112795  108.93743562355309
  1206  1007  P  120.10841506179008  129.57955080336154  111.31067632363367
  1207  1008  P  122.81576784280662  123.84075743580198  112.24024582237246
  1208  1009  P  121.77101395743195  126.03627448563556  117.70515723156882
  1209  1010  P  117.87373277591138  110.85187002345361  102.41329734153888
  1210  1011  P  119.04592024611603  121.10115419741942  106.47416697607116
  211  2  N  97.64500236716748  189.70556771638346  55.87104004363237
  212  3  N  8.222482119060672  61.29776614887125  91.11043833778024
  213  4  N  180.5510387290376  41.237968884740916  107.65204932566482
  214  5  N  19.44698614851339  48.01297276255487  71.56479368009887
  215  6  N  78.5571433715796  9.728804955667243  137.30033840169602
  216  7  N  2.6977722829024913  103.46693186150996  77.19086006098107
  217  8  N  170.39809705851027  139.80552269149842  41.1813950029655
  218  9  N  54.32610386500075  36.27742661376865  37.9248129049484
  219  10  N  97.76640958931831  45.306640490361126  183.6877977929083
  220  11  N  82.93376939483299  18.28064559140803  44.94828896415479
  221  12  N  73.01766981662335  114.40927188822934  195.20675785639548
  222  13  N  164.97556706587238  67.31829317776689  31.369964857549988
  223  14  N  83.92109581985466  157.88037466619662  20.05419917927891
  224  15  N  150.3656277952686  15.081131347055702  115.87731978302574
  225  16  N  32.291680490536294  151.7026855967936  152.36807969826168
  226  17  N  192.48226476574354  86.7336627448448  64.34842219997276
  227  18  N  182.10937139613355  147.0956853270098  67.75023174484693
  228  19  N  55.21539544197615  60.664230263934705  19.706560580252386
  229  20  N  193.5053042092096  64.94975923017869  105.31401041782208
  230  21  N  91.97545720863926  43.37304404745654  182.0304490572758
  231  22  N  171.78773009798584  158.7617519224071  62.66933809335512
  232  23  N  176.59697655794744  115.2609494049858  37.549967130195085
  233  24  N  116.0058031881024  21.1540598002303  40.61033778242149
  234  25  N  134.2618860365337  20.079278645961054  149.38422281933413
  235  26  N  7.446270683429631  73.8181140292532  72.64463422635633
  236  27  N  36.08383401575683  143.10205046158887  36.30591101302003
  237  28  N  70.81700434260293  194.47853497909483  85.09499437556966
  238  29  N  7.362186447407211  71.46181781087576  75.4275020086396
  239  30  N  184.5574391055565  137.25341300619655  61.760979205792324
  240  31  N  95.22452795143056  7.923152924683492  138.71755544171288
  241  32  N  133.91110332423403  107.2125195785709  193.79774321731762
  242  33  N  20.629320728817945  74.56883724918987  155.25894708708228
  243  34  N  196.04754119121037  72.32223248341177  102.96833563136578
  244  35  N  78.11531724221174  92.5612808643846  2.7080367234148355
  245  36  N  122.77308690036402  143.4093898475447  187.16083630904623
  246  37  N  101.26143594336904  60.97812082812147  7.936425632848199
  247  38  N  3.527439719654083  116.18707115281906  120.76111366108758
  248  39  N  187.9758327744172  59.664250445715844  74.83494177352559
  249  40  N  179.20441082508336  124.00771608261073  156.12745205644183
  250  41  N  66.91981186379377  118.66377220734822  7.493974467252045
  251  42  N  90.40336664484788  7.015990909265398  135.5229317717579
  252  43  N  160.13564736127648  20.148979135152942  97.2580329538887
  253  44  N  145.9165228307641  42.94967490077424  31.904968336856115
  254  45  N  150.2443182313933  116.4063325137827  184.89016868230192
  255  46  N  38.42023799881612  175.749476450762  78.32167604926514
  256  47  N  180.74751097585323  157.02842842862333  115.08634555370665
  257  48  N  95.8301199061606  24.876745161455617  165.87191117969877
  258  49  N  104.23167502537737  155.85467061105453  17.16070559565226
  259  50  N  179.2474109644633  40.35703061064934  112.75006109202799
  260  51  N  35.35891606873436  54.594385469337254  161.31770084799282
  261  52  N  20.855149227498927  40.038957026014444  111.86448151713311
  262  53  N  192.20857388492556  135.00672824549986  83.50430723934436
  263  54  N  182.9534050135237  85.73659456072363  153.9934057264137
  264  55  N  45.23116859396441  72.52140518276028  179.02722273550563
  265  56  N  151.60133803162176  29.20718170604738  148.22529202965717
  266  57  N  199.01230882923647  102.8061347598919  113.73638627926667
  267  58  N  149.8466070697915  140.51991248077127  176.6384528561247
  268  59  N  33.421367961164464  27.208531266387183  83.60829980017917
  269  60  N  171.42574496943175  149.84979416161718  149.1259705003992
  270  61  N  138.84662031260558  192.017919462152  95.13763553966099
  271  62  N  121.69463725118172  47.441759882142584  182.26161991021866
  272  63  N  160.62166825943385  20.47353755445016  100.74505593058642
  273  64  N  63.5177251659157  125.58688824021309  189.52292875634254
  274  65  N  192.91746815169353  75.04586547629937  127.26967697740618
  275  66  N  20.303480462369265  50.719081116540394  65.07356577619298
  276  67  N  2.362540291605427  101.72348564292179  121.53963924791383
  277  68  N  23.690803713227524  38.14583086043751  81.2658514439213
  278  69  N  109.88512704880242  57.432642257564034  10.05388102838171
  279  70  N  20.41578261711291  44.78872227360915  75.13904355474808
  280  71  N  11.88857494639798  52.71006595784114  100.19726457294578
  281  72  N  79.70928212102403  192.18596356016465  133.0156764346848
  282  73  N  155.4449914333045  98.64936166641058  16.78925128895527
  283  74  N  8.241489954666648  104.38526067690368  139.51133157786586
  284  75  N  133.19815178469972  58.649131013085004  15.217995116256944
  285  76  N  157.18565031503556  50.08987991579625  34.894076220156165
  286  77  N  11.341325572391028  74.32894220565534  138.47903637643037
  287  78  N  174.24154091257486  77.17416358542597  162.98551257949387
  288  79  N  76.63923069327039  114.86017803371811  3.909159821531574
  289  80  N  21.166153982294148  41.47648404575629  118.9795364118839
  290  81  N  46.873214698026445  47.23127069674737  166.279754761149
  291  82  N  112.77120144606425  97.01038712277368  0.8639388089865179
  292  83  N  71.85268041693871  184.99739143268766  55.467182326653884
  293  84  N  155.66740475799077  18.6900276188219  82.97565158715082
  294  85  N  78.19869566554269  63.944024040247065  190.68996486329726
  295  86  N  38.938035075472584  34.91187310520911  54.889334111727166
  296  87  N  5.037589611808514  103.64606001039763  68.87369505281295
  297  88  N  6.726728790508645  81.1202476772554  130.71891648662907
  298  89  N  137.82473016564307  41.96362341527459  172.11843579011006
  299  90  N  152.24811271584045  36.177133821191305  156.54004306997572
  300  91  N  84.33577380095007  12.756426238254562  53.705390650056444
  301  92  N  178.9589006434694  85.21170345113079  40.44499773858262
  302  93  N  13.48469718641526  49.98915913954901  96.25591459707672
  303  94  N  96.04062006233262  168.58592526678785  172.66563263199316
  304  95  N  41.199710542178984  33.40941745196885  145.91535990918845
  305  96  N  196.0554423992511  102.32140310905314  72.28785332946151
  306  97  N  101.81105738693356  198.71008530771581  115.90720370413052
  307  98  N  43.55279423537602  31.034638003396097  54.64041660196181
  308  99  N  88.88637256789713  45.177196443741735  182.89117863519812
  309  100  N  123.42166075435594  197.1107002802499  95.42422699565049
  310  101  N  96.95459229787443  55.396922025602876  189.4499353109754
  311  102  N  112.85826287154829  22.906412618626362  37.62016463153602
  312  103  N  116.45413855496706  161.78967521459603  176.88496186699115
  313  104  N  78.53319922462885  173.4545069003392  164.3708931155887
  314  105  N  63.93245837095536  58.60606133148304  183.58034626839128
  315  106  N  111.06884124847399  163.04695578469423  23.17186635288546
  316  107  N  64.03316360720603  59.87923481545007  184.24197813976235
  317  108  N  156.38912505055828  128.8448346195454  177.3837327337185
  318  109  N  195.22564091281316  73.37668143663956  85.05756976199024
  319  110  N  68.03759026114663  5.245586177653223  100.07365371075241
  320  111  N  85.28317963723318  165.8931213686465  173.7666032477223
  321  112  N  39.69367549524887  138.36768617341667  169.9361700583172
  322  113  N  56.74724184983797  10.92094146516358  86.06729592107916
  323  114  N  158.36410557909252  23.267971723339784  73.43259484815354
  324  115  N  102.46421070933003  2.7793856415759137  76.7173925568761
  325  116  N  192.1754970485297  138.38935244463082  105.47132184562454
  326  117  N  26.96443676494033  34.97979640145422  120.9327405501825
  327  118  N  61.65787453998434  156.43829024158725  26.893223229205518
  328  119  N  146.91304998689387  175.4248302290882  54.06242577322545
  329  120  N  102.62756084571645  25.79075211659074  33.02176881567581
  330  121  N  46.78524992162165  167.89569660710913  150.5802803109188
  331  122  N  119.6301610187835  26.103347761294046  35.54892113945348
  332  123  N  93.32347383475576  149.54095147655167  13.391004363502972
  333  124  N  102.3441639727838  133.62042128440106  194.14973270237198
  334  125  N  50.046126543618065  119.85985226557587  184.32198286741888
  335  126  N  80.00031578206472  71.93745697001852  193.87495038546388
  336  127  N  38.60637474831938  22.131962247923468  112.9379857434374
  337  128  N  152.54268433734552  33.02550299246917  47.524452616344156
  338  129  N  120.6836656381216  165.23093911223435  172.91851999530957
  339  130  N  193.42006224532548  124.69384996451336  125.74695601444205
  340  131  N  55.33916257485746  57.66328281316999  178.8226615785547
  341  132  N  22.529932340884017  37.717369673137476  89.07925934474335
  342  133  N  102.60049141250059  173.80944197390946  167.4196093129707
  343  134  N  144.82669362982415  188.95122864204217  91.15429701555482
  344  135  N  103.51932499193589  169.65306956974607  28.333660264296668
  345  136  N  190.37387021120725  73.97150036476259  66.01352048554725
  346  137  N  138.3806739208717  87.17231504695454  8.553981124790738
  347  138  N  152.4068584766494  15.93402522411968  113.65404956741747
  348  139  N  44.12126546836239  39.31125733885153  43.480591463182584
  349  140  N  157.46437010498093  94.18240092459018  181.63333699803997
  350  141  N  194.96967928759707  85.30993828527627  72.34205172416861
  351  142  N  189.4603218158835  85.94759131673351  142.4191069071122
  352  143  N  182.03592734512463  123.11067410356004  47.693180491407524
  353  144  N  190.06066466178382  65.22357011831278  126.07060807426276
  354  145  N  65.50047714075055  12.283693399136439  66.59891500583515
  355  146  N  160.10369552416196  150.51873236181373  38.06936569924165
  356  147  N  145.67880590487135  22.63910427590956  56.08259452254158
  357  148  N  174.20874377229836  33.252032018308  106.14582118617092
  358  149  N  34.587437455784524  99.11735669284597  24.366557646822415
  359  150  N  47.28016026462835  25.492878608646194  59.142841994935615
  360  151  N  42.597633931507175  181.57422223072322  107.1143964741449
  361  152  N  135.0388836078323  10.023129096994722  126.0084474357987
  362  153  N  115.69190089825793  198.2385246704385  89.85325092579397
  363  154  N  161.65880037754596  23.010326134688313  116.45546882087785
  364  155  N  187.82763985240874  54.07441264619058  113.3096244936965
  365  156  N  136.46997793817584  21.63996708733434  49.70441419851118
  366  157  N  150.75141735447284  43.82551003861232  34.664555453490095
  367  158  N  31.178851928697156  171.90282960786448  109.67639770421911
  368  159  N  191.57258099409214  128.1278733452578  71.30705398266721
  369  160  N  58.318806171639025  53.50660683212369  21.89082977793275
  370  161  N  73.25595836571127  182.5371450103741  50.27700802847932
  371  162  N  83.89615874184813  194.98304315706585  126.81208327145079
  372  163  N  74.4714152226797  196.66871242854725  98.14220650393975
  373  164  N  172.2993198156508  30.916316833417255  99.49693506040097
  374  165  N  32.17301276594256  31.393874034655425  126.31918089109692
  375  166  N  23.11776944394343  36.60042966393663  108.34368659094494
  376  167  N  51.57011802699107  185.65282693769439  117.83647301631694
  377  168  N  19.78258586174246  81.07503026066857  43.369513604978906
  378  169  N  166.92129453161547  146.58064870595155  157.89458959475843
  379  170  N  86.4665211165395  16.4856112927301  46.68778912704935
  380  171  N  166.41102047504228  46.464451106483224  152.1873678597933
  381  172  N  181.1438094192722  97.00344246043574  158.36696699196312
  382  173  N  107.77256922060027  199.61346018757308  104.0921531214967
  383  174  N  185.8414076038668  92.41038163472345  150.73115841035224
  384  175  N  9.925275349657397  111.06470217081821  57.99861496288422
  385  176  N  128.97123535439255  85.22883449203522  5.4353121319765165
  386  177  N  113.21999010897235  3.5425090728285795  122.82946135048562
  387  178  N  91.81618509218193  98.00504659554355  0.35540489083905413
  388  179  N  163.23591331919596  34.44303276222104  58.726481695015295
  389  180  N  107.72318442203729  16.328771475988134  154.21695251179085
  390  181  N  163.95794848438692  75.18179871666077  27.243985054648803
  391  182  N  143.81782782011285  139.6965501970276  19.351491845280762
  392  183  N  95.44974786898406  199.20045161919717  111.77138921671991
  393  184  N  74.80089484580472  4.9404449007071065  118.12970170058807
  394  185  N  140.13777516452365  48.194635664930324  24.46746905503008
  395  186  N  100.92723362701503  131.01170751389287  4.934684375037747
  396  187  N  61.92615418927785  98.8575411014193  192.46121918321438
  397  188  N  66.54689765335038  162.28708213133078  29.28077105235495
  398  189  N  115.34240668775054  90.21700407069666  1.669417027687146
  399  190  N  88.82337864821079  193.49550910008037  66.32994040285168
  400  191  N  181.45773381929652  153.2886386980937  77.08802525471307
  401  192  N  42.81244493053065  178.7579989920941  122.95127752299896
  402  193  N  12.302602792863055  136.4905131081158  68.73326086397755
  403  194  N  116.48579030573218  171.6127699393568  167.82204582293417
  404  195  N  29.755304376537367  56.24592352142292  43.86388392243441
  405  196  N  137.2802904981546  26.405764582814953  156.5160902198051
  406  197  N  36.12718937561767  176.93843990820554  99.1394609635598
  407  198  N  12.313120489721712  145.74817738223555  114.76873142668146
  408  199  N  29.722118243274366  170.41517868046006  89.86481637134426
  409  200  N  110.07537360482995  3.9341574878464485  74.11871817020634
  410  201  N  139.91526462888638  175.11229854269232  47.417548010392
  411  202  N  129.82969920974972  116.59453686096614  6.00632791817371
  412  203  N  49.40423409124683  114.17518820158745  185.08309180769248
  413  204  N  10.370227180996267  59.305721062894314  82.37957190636911
  414  205  N  9.278309932037757  68.18529416301614  127.52089104151219
  415  206  N  54.107617996218444  104.0880149971614  188.7534641994439
  416  207  N  67.43003250712518  177.91810733945806  46.446608266611435
  417  208  N  133.68806990299208  193.53503549206485  89.21523844912244
  418  209  N  18.05254941789363  157.25622557576463  97.48206912120436
  419  210  N  134.964774823205  13.433675343082612  64.17073881649594
  420  211  N  84.02414267474082  20.19585718325584  41.89603479961404
  421  212  N  41.62610960294734  19.035214144946437  106.09855485817756
  422  213  N  178.36784482294  123.56430106464501  42.52648772571518
  423  214  N  155.46628830801114  28.708900262997375  142.90769114764078
  424  215  N  21.378569726064242  86.81744544158549  39.627067679339255
  425  216  N  197.12980562066235  76.86797382106317  105.54168069716508
  426  217  N  61.65404278347737  154.38021313569385  25.351624368207965
  427  218  N  178.02260632389277  148.25567568017166  60.20222786289496
  428  219  N  56.86710399759686  73.46930066143813  13.769638322382605
  429  220  N  154.7529566832926  26.04109732578165  60.85674451884484
  430  221  N  156.09128771985343  117.59248635939849  180.89667400841026
  431  222  N  16.823822428462435  50.75653947638683  74.3717913180144
  432  223  N  5.095603907046126  130.1328136542877  109.22871299302868
  433  224  N  14.55741453244552  137.51255676171232  135.9495851689412
  434  225  N  89.85769362671756  63.8276723834399  192.6752196449014
  435  226  N  36.853983942145796  45.194674600328355  45.146039670254204
  436  227  N  86.69903589505273  198.57619183022746  110.28682449199458
  437  228  N  156.16148530698376  33.94459105824561  149.82540032604896
  438  229  N  78.30430659079485  4.591126576303253  120.65051475181151
  439  230  N  137.4908686575049  148.953010993384  21.272384248045825
  440  231  N  28.39426450783658  50.353050948938005  50.93067053089493
  441  232  N  164.76337373989622  120.14722387734514  173.48329600570904
  442  233  N  164.66723284172346  174.91276973938005  85.63943153740243
  443  234  N  118.78307527310685  131.24608907555879  6.8824506295024435
  444  235  N  12.438980533117828  73.6499680159361  140.4813992391455
  445  236  N  162.85316089630794  22.685044137303848  108.47807556537298
  446  237  N  14.110967447575149  49.35626029268809  92.3654917862024
  447  238  N  145.34329161190738  71.68484959223653  184.51176346038025
  448  239  N  158.6304418026908  86.79582205385113  20.074278365549162
  449  240  N  113.91205523394541  184.46198425672924  48.30253454390948
  450  241  N  104.03155802332975  128.87339666210303  4.343983434927722
  451  242  N  9.88770276125824  56.681689013897724  98.18401000333573
  452  243  N  11.188988141971308  83.27817790750376  57.186627805556
  453  244  N  110.3905262262375  166.81565711869155  173.67295927638114
  454  245  N  75.60215435572599  59.01410330283158  12.108581762226535
  455  246  N  122.11298725934469  31.11963046642407  30.960080479579915
  456  247  N  8.868044774960552  133.79262435177515  76.48351054512564
  457  248  N  156.42253859676313  169.06812397622855  145.23374170573445
  458  249  N  195.72210433081062  81.15994057899726  121.96203322769767
  459  250  N  179.47821422885232  101.00486500490894  160.6811643701286
  460  251  N  146.83403051910315  37.50510182858134  37.54232402754866
  461  252  N  58.10059908723045  30.72685095921436  41.30016162608191
  462  253  N  169.5681761616043  104.49516419611902  28.305771749757113
  463  254  N  31.681175478140716  121.14513188719563  30.104208900503167
  464  255  N  96.78670312997754  175.56587147903332  165.41768714070622
  465  256  N  129.6214946414534  4.772483533321633  107.36798227433044
  466  257  N  146.9316873467338  63.65328243608856  180.47566616759178
  467  258  N  51.76861492336232  29.838521959924563  47.54906585368469
  468  259  N  68.77434798089135  147.00839591775753  17.445960915162402
  469  260  N  190.49674981039846  109.62458558982784  58.55478765914903
  470  261  N  45.84632957331211  144.99043428435073  28.984221455910316
  471  262  N  154.92472189622777  40.553675711913975  158.73167333950013
  472  263  N  56.85155137338121  23.715131044936427  148.1542329356913
  473  264  N  60.670331049976376  79.02787992794936  10.482698208865585
  474  265  N  13.687262339231353  134.816291924334  63.42217701744831
  475  266  N  188.99753152728567  112.9484378356109  143.72387608237761
  476  267  N  53.966727451170485  71.63197943883986  15.87988808919252
  477  268  N  126.17226002512469  144.9279442886853  14.580490359812686
  478  269  N  96.5566498856478  49.247065888952974  13.90538333258165
  479  270  N  177.64979916388575  88.1929981952777  38.104092233884366
  480  271  N  169.1660060122139  29.589172631828887  83.92582811937123
  481  272  N  21.562946562510547  160.49214525913345  86.27669828385594
  482  273  N  138.3431207593174  7.738842292348977  95.79478075716065
  483  274  N  31.603228506303495  148.37176961981953  45.391817892497365
  484  275  N  22.04179390319227  103.05354000673333  162.5555272985124
  485  276  N  119.89033641598  130.05202034526764  193.28049415835426
  486  277  N  104.26506478625986  28.28451435824313  30.43924711781814
  487  278  N  131.90966149379219  69.59317149730649  189.76189772815292
  488  279  N  159.87592626869093  177.83198016836633  81.10406613746446
  489  280  N  149.25819542418913  18.273466398070738  70.09341395335935
  490  281  N  144.30541691975378  40.200751933496676  166.7913165182989
  491  282  N  58.492514612221406  101.77843753404628  190.961342430292
  492  283  N  28.76698586640957  69.84337417960589  163.37535496210214
  493  284  N  171.53201913437766  56.56086578625155  154.7376639738944
  494  285  N  46.73099509807119  131.17328095645985  178.68061814175013
  495  286  N  51.270941621270204  167.191822229516  44.226010587376265