# Initialisation file of the particles

5000  atoms
0  bonds
0  angles
0  dihedrals

1  atom types
0  bond types
0  angle types
0  dihedral types

0.0000   200.0000 xlo xhi 
0.0000   200.0000 ylo yhi 
0.0000   200.0000 zlo zhi

Atom Type Labels

1    HP

Masses

1    1.00 

Atoms

  1  2  HP  0.6318311662210307  87.07693560257015  87.55935330800557
  2  3  HP  111.483685499199  37.007801672582794  118.6121045585078
  3  4  HP  17.92769062688524  124.69719091226456  132.71527429179147
  4  5  HP  81.00710399331612  90.91633245573365  118.24926342057654
  5  6  HP  123.05633639102938  127.79492942599492  157.22781433798184
  6  7  HP  176.8934030438089  63.068499067818216  152.7346344336785
  7  8  HP  178.34987809164994  8.949094264667302  64.54511738316653
  8  9  HP  10.447249445616503  40.557970628731546  89.93920561361519
  9  10  HP  147.86039118768932  162.42930471689237  150.47378573559158
  10  11  HP  76.76771286524857  162.57425406926978  106.68066117018596
  11  12  HP  181.4393170896172  72.47794556218945  16.658385976677394
  12  13  HP  194.18589303636637  194.6696644966589  38.71658590870424
  13  14  HP  67.74630275379221  141.61128998516915  19.22461009008627
  14  15  HP  94.71223553237971  137.25197994115115  13.089192851379373
  15  16  HP  38.099460479723724  160.97948019950965  85.86244400354475
  16  17  HP  138.38838863777468  106.21178375682148  24.175004302633152
  17  18  HP  43.3660076361567  191.0596894631729  123.9436936236824
  18  19  HP  109.06799548156411  144.18535965003122  156.32091004576918
  19  20  HP  38.447264058009225  88.38095728215866  171.05648637153658
  20  21  HP  172.81861173172194  156.86263579920188  83.65268818660316
  21  22  HP  183.12186328156562  187.57808528229805  92.36233812119482
  22  23  HP  188.14000992748095  59.125648690621226  111.1471954315113
  23  24  HP  31.564876929469765  194.65635019435572  21.012375531166505
  24  25  HP  47.6521959647513  192.89871914308495  127.95727339326446
  25  26  HP  20.850438935482927  105.85371387493952  43.169409930596615
  26  27  HP  78.84106351086916  100.94211304976888  0.2014605919590906
  27  28  HP  113.38728645077158  125.33044518114728  112.07722120742211
  28  29  HP  178.8052052480313  109.7966948544338  66.94984756508427
  29  30  HP  5.461390594495841  168.01518533432963  126.98127645744978
  30  31  HP  70.5766201832774  29.390616458042395  99.79409001224724
  31  32  HP  114.2946440483801  121.16910076418779  12.418302195462715
  32  33  HP  188.37688362961381  132.33807407365637  164.53595805172205
  33  34  HP  150.03990118913964  90.44915450815536  29.704343985292915
  34  35  HP  15.681705358535636  42.962662869916855  106.72475336775611
  35  36  HP  98.40928798362954  104.87225738738653  42.45806313761544
  36  37  HP  160.30835003540332  146.57675757272037  39.08734182795877
  37  38  HP  95.45397690977882  171.97856419599356  24.791799183286933
  38  39  HP  48.19721031907176  185.3643831535584  111.68465157463632
  39  40  HP  89.46754559016341  1.7405450172504056  169.18103003338513
  40  41  HP  113.71829246528023  192.38063965592247  82.09425452954184
  41  42  HP  0.2016679175588454  37.22699297362524  152.91638284936118
  42  43  HP  131.0773404853183  99.15895159028511  198.72107834640863
  43  44  HP  151.91549930026852  22.15109403034521  186.43914034270117
  44  45  HP  161.72182118987817  7.346598981598107  2.4227847917049017
  45  46  HP  160.57084722754033  115.02667738023456  177.61074260220727
  46  47  HP  84.28623831798741  185.1951232793474  115.48932128127008
  47  48  HP  192.49240370513363  82.03777861629386  174.53036274117807
  48  49  HP  122.6068574471431  129.30626402582232  180.33059960172898
  49  50  HP  153.33574961016862  80.40643956489393  125.07451670986667
  50  51  HP  48.19606711816093  87.39282948644278  58.42336056514827
  51  52  HP  50.153692134786375  48.920072324472045  143.35183953519208
  52  53  HP  188.72845809943595  83.81141567283179  89.95200585749281
  53  54  HP  142.1584230494057  27.301386972222865  10.347641678621923
  54  55  HP  149.84643207992835  66.6867298835448  96.4523525224015
  55  56  HP  186.9443518793546  70.61171704551963  67.50067389237006
  56  57  HP  88.55516523007701  158.76853380284433  52.53494766607565
  57  58  HP  60.3502562454664  92.70629233466612  69.97216668464665
  58  59  HP  65.27904393896786  183.7862399249659  36.774265869100844
  59  60  HP  95.42111215989766  126.4592831659338  107.3724167393423
  60  61  HP  21.729080674295375  18.313881686324663  176.8118900969765
  61  62  HP  36.04484544829249  27.446424478423026  157.7704020636328
  62  63  HP  30.781443227979842  55.161368215434294  149.559250789639
  63  64  HP  151.19154958411414  70.66447017000814  142.94033221028297
  64  65  HP  88.90758051256435  163.1219381516733  95.69825799862073
  65  66  HP  77.93464901753029  172.4053826514081  97.13435578916419
  66  67  HP  29.22258043892898  86.89127139103934  74.85231211022776
  67  68  HP  15.653959091739967  92.63873669261302  156.83052996905187
  68  69  HP  49.29517222267439  174.142411828456  183.04680140628537
  69  70  HP  124.71027420072134  168.4529830075243  145.18520584160225
  70  71  HP  197.60987578245346  112.66155884039068  106.63053064490649
  71  72  HP  20.969615800510354  36.41414054642227  147.65865061546165
  72  73  HP  155.57182524699707  72.8887624025956  23.073840682607116
  73  74  HP  81.8821001518229  63.34703505842691  167.64056109474828
  74  75  HP  158.67858152481458  163.80908677840756  15.224981868354215
  75  76  HP  100.55867122254514  190.2965491245734  22.283914909018222
  76  77  HP  37.3238179019707  70.5961494650021  52.842125068149784
  77  78  HP  188.42384008633343  102.74042107056633  59.03021650724474
  78  79  HP  29.484633045080088  167.3512789058912  34.68060508680446
  79  80  HP  25.212177572904682  165.0123867713412  140.95886979397042
  80  81  HP  180.03205601524851  7.254712359564208  96.1310337398396
  81  82  HP  42.9476196433835  163.66988367098006  177.6349258185583
  82  83  HP  192.97165214215775  79.086940951335  132.01951050101482
  83  84  HP  199.59237421227095  87.97973524277754  56.41881467224743
  84  85  HP  82.54002255259749  9.544269799116423  24.877234401164074
  85  86  HP  166.1907323864601  7.789827470200583  56.31650199422202
  86  87  HP  165.85195699232565  128.39928373386826  147.42820663853553
  87  88  HP  41.18683290975691  166.63147201852954  176.561533279546
  88  89  HP  172.6378497523451  125.84356952618454  44.2466371740279
  89  90  HP  85.944555650187  152.5487713983546  195.96577645047273
  90  91  HP  47.692655584273936  125.11533627796982  15.074589059314958
  91  92  HP  39.53926335007323  137.41760323876784  58.690685106026066
  92  93  HP  193.79668652580912  2.36755267832387  74.40156089445169
  93  94  HP  172.0199254054998  185.8955209011694  74.54738939772649
  94  95  HP  91.96967912431346  41.47775118837058  9.069138014372902
  95  96  HP  186.7747648231984  185.3101605501155  106.21083725857766
  96  97  HP  57.71422398824257  4.342028387560615  12.490760435686976
  97  98  HP  35.67655125716842  176.51436767063439  44.407581496422836
  98  99  HP  169.88198909036188  26.146192876052176  81.25322541643614
  99  100  HP  130.6388342112729  192.70583053938765  38.318836276369225
  100  101  HP  171.75258580386378  164.77480445463618  12.246494202883152
  101  102  HP  119.86046918686874  61.093126548698784  52.394404917961126
  102  103  HP  16.62906141647833  170.63388772257858  178.76606698163343
  103  104  HP  173.9991642735081  7.124461551445127  40.04713509133286
  104  105  HP  159.11653839861418  50.8875215671049  147.15070125259035
  105  106  HP  9.615542896217733  191.36779374131535  27.549982750549628
  106  107  HP  18.355338675781564  73.23784025576896  156.17191824695868
  107  108  HP  186.0836164496107  172.85078064830049  97.06319478192592
  108  109  HP  124.19473889858122  128.22163046244654  162.0540969183337
  109  110  HP  57.99665683142734  160.0107441947033  187.96236644241623
  110  111  HP  179.76740672232853  32.67681945609644  177.6373018817899
  111  112  HP  89.71184758428814  40.53871109541289  70.00264045513718
  112  113  HP  77.21172327972776  158.19606961221814  47.59922496014117
  113  114  HP  165.24042126866348  7.409097464489434  111.04503054666255
  114  115  HP  162.347439763178  71.70683551951652  14.680881539200442
  115  116  HP  169.95362034323767  74.4884548194651  197.53334495813445
  116  117  HP  27.491110769676787  48.16958808202412  166.3106556649591
  117  118  HP  4.844809232274505  151.23643406845952  53.377981124148356
  118  119  HP  96.73061884955587  52.191745498224385  191.58716662409273
  119  120  HP  7.678502310698887  163.55126843045485  161.40879166530223
  120  121  HP  133.60412920121178  75.28089693679125  194.8407875277099
  121  122  HP  94.68629404788322  44.677644956571136  63.13329739921816
  122  123  HP  34.22631959365805  67.65536285271105  96.6845689816987
  123  124  HP  50.551821748427564  196.78646550448764  147.79645329979599
  124  125  HP  49.22134780192992  137.1885306787838  87.90450101605856
  125  126  HP  175.78929127307703  146.71905568879316  17.713863861523095
  126  127  HP  62.90321972216382  92.44121843780124  103.21449697538287
  127  128  HP  59.76771431825374  49.42148945488067  10.12499800791684
  128  129  HP  198.65893256297855  12.770438577583953  87.35584647128299
  129  130  HP  33.77470313821029  145.92056725695267  83.50098759535267
  130  131  HP  178.3551723563641  142.57129655680504  76.00927386462936
  131  132  HP  186.2692688459551  105.44655017211649  132.00268728422157
  132  133  HP  75.8129739874044  5.597040355779259  145.33735834891584
  133  134  HP  172.12341045874905  126.42003216141859  81.7793043533722
  134  135  HP  21.691475068531616  164.871263396087  162.22457192234478
  135  136  HP  176.91266039238224  60.35553224025361  81.18557858362232
  136  137  HP  184.6944897433974  155.04121894204326  129.76382103625508
  137  138  HP  38.12190480513318  12.96888298959129  82.35648586187878
  138  139  HP  65.76012000429414  28.958140129117993  93.16019809008418
  139  140  HP  65.40916137364125  165.64459242304704  10.015957979594425
  140  141  HP  2.7060794711642577  26.15109025965412  113.29914719804898
  141  142  HP  21.022010028598537  8.360620888580472  55.81328154637744
  142  143  HP  75.5556466439603  188.73253605563795  167.34552998619233
  143  144  HP  168.31933276885522  150.0931492052028  8.168988057027772
  144  145  HP  173.77824370915366  172.7094630410114  59.71186143034295
  145  146  HP  153.43917482117863  108.93781743518703  80.83707911273044
  146  147  HP  35.0387028169584  191.05564624358018  86.32100092299422
  147  148  HP  104.20688262761485  1.5229153595097022  108.50684013475163
  148  149  HP  151.43224418228428  52.55251323738814  108.25547202749324
  149  150  HP  191.926012421773  26.85869719833247  197.0801256257579
  150  151  HP  59.99751990301645  91.70421364846035  62.70478441847642
  151  152  HP  182.34947068862382  131.87169279752257  83.05724823729703
  152  153  HP  24.33631517627748  178.39839703208048  0.7556835175749343
  153  154  HP  114.47232900776292  17.65631533279677  73.18744161625945
  154  155  HP  141.82251729346996  3.1980997522309984  33.61777491089166
  155  156  HP  106.70051094587272  197.89192753246508  180.43931213807812
  156  157  HP  41.034414177219716  12.557863684735104  114.85253403672158
  157  158  HP  144.56237410689704  156.42611267637525  149.54843647497879
  158  159  HP  84.36546005833445  173.9443306647952  0.8926867505438585
  159  160  HP  197.42829528681904  22.11489679363097  154.63443557787414
  160  161  HP  88.74329505996079  157.1520185822282  159.41567082339998
  161  162  HP  152.3353968202673  57.08346984468429  149.0831280491868
  162  163  HP  185.83944599667478  57.071146063037226  181.1721445472087
  163  164  HP  34.59433133738299  18.915713490714303  85.61696030682211
  164  165  HP  148.68710987030698  129.5203789685897  174.79540672420046
  165  166  HP  5.324560984002136  186.29354811408172  43.67233246382827
  166  167  HP  55.779608021850066  175.07751846650893  20.877886021562464
  167  168  HP  43.40513286798304  7.8023651109258685  36.51950280441398
  168  169  HP  141.2015373399853  4.150510273148278  194.96281244377346
  169  170  HP  153.52507815063012  137.67191664809195  139.99437869323967
  170  171  HP  149.50057371426635  66.89562521603816  56.927126671390596
  171  172  HP  117.36310503770488  140.67913259578785  11.726665696347993
  172  173  HP  158.93313028457493  86.7481402410908  54.89324085527454
  173  174  HP  34.666985023642624  87.21329980691195  63.68628369129776
  174  175  HP  107.41668930701263  40.72184088507231  78.67705779600543
  175  176  HP  85.91387837001403  176.40280995029113  133.42034372483283
  176  177  HP  140.66173831122916  25.020110645223028  75.25872820911097
  177  178  HP  95.97829279215387  151.39065950813657  10.377378550759842
  178  179  HP  66.01483587350343  128.1473201679702  101.340078158412
  179  180  HP  65.96284994404628  99.14326039051282  169.0139664878571
  180  181  HP  63.565088092528924  135.54380485096058  121.44421107091677
  181  182  HP  35.323916504395655  97.5504474674863  70.60715605770955
  182  183  HP  120.24978943934977  181.21048830869714  75.73859068368711
  183  184  HP  118.64327949483192  121.69929262362989  106.04713856120694
  184  185  HP  83.44823674808993  153.8720354971281  146.57963378988873
  185  186  HP  48.24395319882382  132.9406852441623  99.04805864860155
  186  187  HP  47.026052340608594  165.1801365014145  84.50238997660703
  187  188  HP  187.10204953217192  0.39111588005180664  76.85446716517095
  188  189  HP  67.60619708442977  19.199435660497  160.77868913648484
  189  190  HP  99.29224282402352  172.83758178162407  108.7251954417715
  190  191  HP  122.11146276469871  31.42557468925917  136.93161668753885
  191  192  HP  139.91663526925933  143.5539500164629  41.8285767886077
  192  193  HP  12.27371168746625  116.50873623651667  0.12500637541046355
  193  194  HP  167.12397803504425  126.58197721949888  31.342249198195816
  194  195  HP  9.294293477330552  142.79314002889836  179.12629286314066
  195  196  HP  64.26407920186246  23.27551896779536  95.91953379496121
  196  197  HP  156.7757413230531  103.34589646016758  134.82249680321223
  197  198  HP  158.18043798389863  60.0701357895735  25.247615434659075
  198  199  HP  59.585136724127665  24.276753563518618  94.27324714715684
  199  200  HP  169.81788370433807  14.82858182062885  36.95403301703968
  200  201  HP  81.74234702345866  50.05352466931286  19.97747300648134
  201  202  HP  131.47780562470984  93.9160455036745  5.192090424346829
  202  203  HP  87.6094425473268  178.130824844026  57.603848532903925
  203  204  HP  8.281653477000539  99.73335925778004  142.34447939241684
  204  205  HP  129.64297955813473  21.174401325182824  83.59247174810696
  205  206  HP  10.317897564154755  134.52841112834  95.40557584075142
  206  207  HP  185.77479017667358  34.66804825895715  190.0376970749936
  207  208  HP  85.28103140733174  20.777641899475974  182.2828366626756
  208  209  HP  187.58361227610803  151.49213252400756  47.82598273585628
  209  210  HP  124.59795037985981  50.79335968420327  181.3621860892095
  210  211  HP  111.75757533046773  81.24465101441527  57.541432429883166
  211  212  HP  98.15104769669003  91.5679463933438  196.65118587928683
  212  213  HP  189.08672632595932  138.6641154250882  165.6659242277874
  213  214  HP  186.89011064058775  94.14090087495961  184.38231697012367
  214  215  HP  56.555216553365085  152.32732222454993  194.98445345603176
  215  216  HP  88.1198658346674  162.8102311346367  7.062163639921115
  216  217  HP  85.40948476680505  7.143797282237929  90.85259908130863
  217  218  HP  116.25602871043874  128.4935431101815  83.06975758054553
  218  219  HP  33.89385937816718  28.222310293495887  70.6835426698478
  219  220  HP  194.75602222273497  184.72696515438375  184.06637602115774
  220  221  HP  159.6885363051375  32.571517126053486  26.99607817973204
  221  222  HP  51.33777667613859  65.52692950269905  33.72413869478903
  222  223  HP  57.83868810851893  52.58758475289975  12.052790164007575
  223  224  HP  72.68746620814545  71.26611824380103  69.70332258622057
  224  225  HP  78.8206992880702  178.1580967551384  162.41380414938
  225  226  HP  99.61798195090195  167.14352923542296  152.23649867980518
  226  227  HP  160.1645565937551  198.58826300165805  69.62582440144953
  227  228  HP  198.5901171241137  73.97948607886549  77.91217426820918
  228  229  HP  98.3432485689683  61.87231068278389  177.12558523782477
  229  230  HP  80.77314607232053  71.16165421507246  178.69119453598356
  230  231  HP  122.47631037712152  4.294427189287164  60.060631169918
  231  232  HP  60.908253611813514  165.59693399909418  198.36944710589037
  232  233  HP  122.60743579254125  166.09782934594347  45.2418779891806
  233  234  HP  162.7303690785607  79.32665928394354  156.3616434608648
  234  235  HP  110.29251071380983  162.80570668468494  173.90802354870425
  235  236  HP  26.082737599594342  95.28853653136645  162.3898253718733
  236  237  HP  136.47395690101962  28.312437415936454  97.41158348897676
  237  238  HP  66.61684307847769  118.7217975854072  168.00502261445786
  238  239  HP  190.93558897917694  165.32999548119474  84.27758229675784
  239  240  HP  57.41958444571047  197.06584516909098  96.5032523560198
  240  241  HP  189.33031662532628  94.71083682450379  105.16710681906916
  241  242  HP  17.920041646912544  148.7329222512295  184.94275633906665
  242  243  HP  95.60119992767116  38.907484529910754  94.65881610415809
  243  244  HP  33.29790719932224  124.32934586355438  162.02087424878297
  244  245  HP  64.068060898657  129.01676704118395  111.43601131437147
  245  246  HP  150.15774813507468  53.0976786055553  144.6640516039928
  246  247  HP  120.23540168698035  149.79235167426978  123.52897240670673
  247  248  HP  87.4431348072462  26.636101733772556  180.64083874928022
  248  249  HP  8.750751187277817  198.68072160579396  91.44713305350159
  249  250  HP  62.453304148393805  156.99822216361545  24.070504147027584
  250  251  HP  164.88881816033143  97.9411054264576  42.29717697378275
  251  252  HP  22.233743295527898  191.2183732371886  69.28758879232848
  252  253  HP  78.73542944245075  2.1270704146512553  186.09584217623382
  253  254  HP  58.55786372882989  199.49570871184306  38.612630238244996
  254  255  HP  43.71057057428038  102.59455536758708  18.754027644943072
  255  256  HP  48.13270336145665  51.98384143281374  72.6568626135602
  256  257  HP  152.9995666107994  146.71678603554145  9.760182582560795
  257  258  HP  3.6741671074718596  130.3809104353351  185.99091649183336
  258  259  HP  115.04416716355537  65.8991104478981  143.3527014692548
  259  260  HP  137.81959478307803  83.46636453250306  70.03920231375402
  260  261  HP  163.88416761664868  0.27417029532874615  6.797048196136313
  261  262  HP  141.25598607381167  16.18014997925037  124.24907198994379
  262  263  HP  34.43416833608113  44.97403320836486  52.330252505899665
  263  264  HP  93.30951599105542  195.8478570256582  67.37376715187673
  264  265  HP  30.37981540216046  11.061708549855886  58.00058604884046
  265  266  HP  14.229455060719376  55.03656574595344  91.67994852631973
  266  267  HP  9.585045584045137  13.413800992595926  28.25240446872821
  267  268  HP  72.45020363778272  0.23044644827256988  166.93096292741708
  268  269  HP  170.495922202395  140.9169932749416  166.064959636385
  269  270  HP  71.79935637733644  140.06522436048803  25.722745162457073
  270  271  HP  149.21861049188593  51.04162735550799  64.47226796918501
  271  272  HP  105.63611715902512  103.94421837589125  68.01270500603019
  272  273  HP  26.278586035200835  184.5961265428626  18.631962396347433
  273  274  HP  181.39201951065945  83.67315289856774  14.011841479117493
  274  275  HP  163.56459192200631  16.45813976939401  27.45545432336225
  275  276  HP  166.53938174121083  186.4278043233927  162.49056801109413
  276  277  HP  96.88228924061902  154.58730074669745  122.96658052748242
  277  278  HP  32.00317479885819  111.25300939498592  135.1672084525764
  278  279  HP  78.83817143131347  4.336057651646419  132.30153206142435
  279  280  HP  79.89940578248067  109.64160854087143  161.06446021554663
  280  281  HP  97.62035013691481  80.97981884686605  188.55833888323474
  281  282  HP  8.838754125915372  19.59285528087338  125.66634196088766
  282  283  HP  44.65685709954457  79.07814973447623  181.671912882925
  283  284  HP  171.5029386831388  74.70008796578489  168.06916210517167
  284  285  HP  129.59232436946928  123.41577575010709  20.045635981488164
  285  286  HP  131.07439291511605  189.32038022545117  58.456885296790716
  286  287  HP  12.309411026442142  195.57660966363744  24.096866064406175
  287  288  HP  59.104060093822916  49.14573464888918  172.9708289282051
  288  289  HP  183.20684326147813  175.46732673798667  161.23729159004796
  289  290  HP  36.23381276275863  163.39779372624818  85.71617287538109
  290  291  HP  80.20992593597094  148.06694048043985  49.92778234191111
  291  292  HP  141.27940560291424  64.34766567952362  171.12700563583948
  292  293  HP  117.74396085675498  144.91671709500378  190.24746845493812
  293  294  HP  92.47063836557314  127.7391765453477  57.81732139037703
  294  295  HP  91.71993121237692  18.63667182003026  91.64141257326523
  295  296  HP  126.56467795449606  161.83164951863645  1.2588135168632553
  296  297  HP  154.16782290922416  145.74761558536932  54.10241452105278
  297  298  HP  103.02493611432308  87.27105416720372  105.7923713937504
  298  299  HP  63.83541442702943  148.56619704012545  35.01355624565381
  299  300  HP  159.0884473199372  110.80697483573283  146.04117516772942
  300  301  HP  36.88296061706331  47.18489931193528  132.36529902869708
  301  302  HP  157.00399015415627  187.66142794674542  25.002080813837036
  302  303  HP  93.78849820313795  136.60936101185692  142.56919532668502
  303  304  HP  174.84717369701295  114.53296159817774  96.78191921043981
  304  305  HP  45.28179237820975  4.479424022628997  184.96201012523298
  305  306  HP  154.77419344200845  90.08761115608459  32.93417259990743
  306  307  HP  108.09838716538735  103.5424438691886  65.09336927987614
  307  308  HP  151.08718696966125  145.29864130361568  19.97096565351848
  308  309  HP  116.49678535218378  169.6473937254188  130.77948870037494
  309  310  HP  86.28139192800381  114.89375695585018  144.76606019642983
  310  311  HP  74.76066514686921  45.605701677023404  45.956695112406656
  311  312  HP  180.39607992443842  155.9382136733909  167.43247288227644
  312  313  HP  89.79676979663671  196.96034218397907  199.56165758408778
  313  314  HP  175.90355373533953  41.0787895462678  122.62459302854293
  314  315  HP  169.15430315618246  126.51718870141615  159.2870956059257
  315  316  HP  118.17698929663483  158.2929438639597  186.94720518921326
  316  317  HP  158.34518604051425  51.81497757275017  16.368263898815293
  317  318  HP  177.4963728022827  6.6675421432695225  131.6663118026696
  318  319  HP  90.78483329939347  56.59714100554118  128.5899488105116
  319  320  HP  36.21596485932494  75.73972830767106  128.37941753259898
  320  321  HP  1.4820882516523248  14.84603722957132  6.579326977382993
  321  322  HP  195.73770714623723  29.960593950267246  112.11757315784203
  322  323  HP  72.83155185859249  105.99305093819157  79.5464915429438
  323  324  HP  127.62216672455698  95.79007463140499  63.756427230650445
  324  325  HP  184.93037111291474  136.38191783053628  28.650790197342225
  325  326  HP  114.37271552911805  101.90649903854556  117.1674124454215
  326  327  HP  34.04626234089474  156.02650817307747  36.10935439686804
  327  328  HP  56.09076742312933  182.48915500297207  188.6570760465004
  328  329  HP  178.61894520459393  179.36227771318818  119.16790880683543
  329  330  HP  196.39787874237862  0.7908795450702666  92.10986387864202
  330  331  HP  185.15893405657934  132.1786309121367  66.74308926004193
  331  332  HP  57.07054975508632  44.593266654274984  177.94054931247433
  332  333  HP  66.82944158149242  191.6662119417639  79.01323720589073
  333  334  HP  57.63852211002571  115.93798528966417  73.81153701905583
  334  335  HP  90.83589373066619  197.86029156497494  131.17918419053274
  335  336  HP  150.94729832321187  49.75457538653254  78.18457411843995
  336  337  HP  53.29262147371055  20.2367201745844  21.00131212775185
  337  338  HP  111.87617973306547  90.33576251872766  139.41381094946317
  338  339  HP  22.98950712569292  178.03671172491804  75.07417315362726
  339  340  HP  112.2126908748554  108.67624204134987  111.56443143437926
  340  341  HP  160.93859238966007  194.35443323968624  78.9060081373997
  341  342  HP  56.1528322719552  166.52691156691833  105.74422713367704
  342  343  HP  11.011262306515079  100.01444654528089  189.03044617210372
  343  344  HP  99.36689665595648  21.236261297001846  75.05899492179411
  344  345  HP  198.079280180119  48.0981780704746  13.484955311233705
  345  346  HP  101.75820007657212  191.17840581676003  140.1427653939095
  346  347  HP  64.46864103801218  196.98443618700304  10.275659427696858
  347  348  HP  144.22427198563284  107.9775009523206  82.02853277137798
  348  349  HP  186.60472653726947  9.886615114572805  78.8817616629614
  349  350  HP  95.46554026473213  65.27119907380839  115.82676836143926
  350  351  HP  144.4146605849964  187.73814478025452  114.45735632347625
  351  352  HP  108.5252807036861  101.38553939420134  85.39447210573756
  352  353  HP  180.36567886121279  191.3001316848409  72.14014709631662
  353  354  HP  0.3828415174356836  112.8089738650289  189.0435262981991
  354  355  HP  143.51575336702754  16.36822422087527  122.36012417590968
  355  356  HP  129.83121600866028  172.50127189340026  19.52267273141468
  356  357  HP  9.625207350771902  5.076220444816215  125.06081507120861
  357  358  HP  194.7557293355112  132.516730765998  75.58528819464658
  358  359  HP  150.5334589895036  173.0753603353629  57.08903787116639
  359  360  HP  39.157237481107465  179.9575285317679  84.25980564619533
  360  361  HP  110.9385284303738  123.26316004762077  117.88752009427243
  361  362  HP  93.8846407691871  178.64772487891642  42.41113950334123
  362  363  HP  26.85870923806142  169.24538232574494  135.39186070557923
  363  364  HP  29.913650299785143  132.90263624338564  1.879480995095828
  364  365  HP  16.591504430072046  25.370448918527465  40.36731262139828
  365  366  HP  51.30372651137911  142.36029885430884  29.836477121845718
  366  367  HP  52.40371547270786  134.50507265516484  109.1589135474646
  367  368  HP  22.782950997541263  21.321833052342964  110.80948709763238
  368  369  HP  84.66573167909306  110.12513105440776  49.13670720618679
  369  370  HP  199.2020151018488  119.51226559084411  30.133648668856374
  370  371  HP  17.340975336446142  194.3813954412735  31.365902597890294
  371  372  HP  78.396044474829  171.96550932926715  125.23450168982552
  372  373  HP  192.78137225397853  72.91463776756322  19.372959774704988
  373  374  HP  71.9940923672314  34.970239917305875  184.48193723055923
  374  375  HP  110.62683619419  136.50590659809103  125.91297690874275
  375  376  HP  47.619326139030015  159.566404523684  123.7575380974488
  376  377  HP  129.8544371753179  179.9092652588666  34.34045887751856
  377  378  HP  65.94733520769486  95.74096120896243  63.89706967801796
  378  379  HP  97.04160173077587  181.25054557123642  5.254330929461282
  379  380  HP  8.49148318145092  162.32723446224216  75.2041818784877
  380  381  HP  176.98067621825734  100.85406705612145  140.16681545781657
  381  382  HP  198.3674607331857  7.648207270137308  36.08940516615462
  382  383  HP  115.59259836504263  146.38444454571157  15.689910129904172
  383  384  HP  181.97486446673702  20.7093953046372  158.38995982950684
  384  385  HP  38.884950222256556  96.89733616576375  108.13450004667959
  385  386  HP  122.27886210334049  174.83966770225325  52.6823105213428
  386  387  HP  1.9824150490792114  112.79587539813343  67.48716105406541
  387  388  HP  140.46259224100626  198.95587815279612  14.130637361727683
  388  389  HP  47.66898029316553  101.66393827995803  29.369727182906537
  389  390  HP  6.317014826487832  119.40024960182929  192.95775412594205
  390  391  HP  105.90354785761113  48.40174686367209  31.920948169965623
  391  392  HP  66.3523980094221  22.405350291068405  90.37155485209811
  392  393  HP  187.01928087636767  167.28953952134927  57.97531791058108
  393  394  HP  130.09321396862083  22.814374884736544  129.88320669972353
  394  395  HP  27.38141470486193  3.7233080481377856  180.56485012383664
  395  396  HP  70.70671995232156  89.06791724464227  34.254295077898675
  396  397  HP  118.36422633321284  25.052235318596594  112.73454041603527
  397  398  HP  84.49305560428606  104.45976468810014  179.14769881512882
  398  399  HP  24.6270548883712  46.945806521131736  38.09194280076067
  399  400  HP  181.54335620121415  59.43356525168046  67.78694808875582
  400  401  HP  1.3182157547642737  87.25876146718844  195.8739453262628
  401  402  HP  175.04853023677802  127.2674252131051  161.70514466461358
  402  403  HP  180.02426740937872  97.11563679416027  112.90263578582402
  403  404  HP  93.49838855831875  167.69657816032083  77.07746535281801
  404  405  HP  31.143970034644664  56.51976936849965  140.5878390492194
  405  406  HP  158.58653669047948  51.9242678280172  107.94853161177468
  406  407  HP  39.951737947333264  8.4417122362352  60.094693578458205
  407  408  HP  192.41861980562422  62.02678018972203  166.99004590033385
  408  409  HP  8.530192561144245  164.96423712462322  94.43165833648935