# Initialisation file of the particles

2210  atoms
229  bonds
0  angles
0  dihedrals

10  atom types
3  bond types
0  angle types
0  dihedral types

0.0000   500.0000 xlo xhi 
0.0000   500.0000 ylo yhi 
0.0000   500.0000 zlo zhi

Atom Type Labels

1    A
2    U
3    M
4    N
5    P
6    PU
7    NA
8    NM
9    NU
10    HP

Bond Type Labels

1    Normal
2    MM
3    PolyPromoter

Masses

1    1.00 
2    1.00 
3    1.00 
4    1.00 
5    1.00 
6    1.00 
7    1.00 
8    1.00 
9    1.00 
10    1.00 

Atoms

  1  1  M  0.0  0.0  0.0
  2  1  A  1.2  1.2  1.2
  3  1  A  2.4  2.4  2.4
  4  1  U  3.5999999999999996  3.5999999999999996  3.5999999999999996
  5  1  U  4.8  4.8  4.8
  6  1  M  6.0  6.0  6.0
  7  1  A  7.199999999999999  7.199999999999999  7.199999999999999
  8  1  A  8.4  8.4  8.4
  9  1  A  9.6  9.6  9.6
  10  1  M  10.799999999999999  10.799999999999999  10.799999999999999
  11  1  A  12.0  12.0  12.0
  12  1  M  13.2  13.2  13.2
  13  1  U  14.399999999999999  14.399999999999999  14.399999999999999
  14  1  U  15.6  15.6  15.6
  15  1  A  16.8  16.8  16.8
  16  1  A  18.0  18.0  18.0
  17  1  A  19.2  19.2  19.2
  18  1  U  20.4  20.4  20.4
  19  1  M  21.599999999999998  21.599999999999998  21.599999999999998
  20  1  U  22.8  22.8  22.8
  21  1  A  24.0  24.0  24.0
  22  1  M  25.2  25.2  25.2
  23  1  M  26.4  26.4  26.4
  24  1  A  27.599999999999998  27.599999999999998  27.599999999999998
  25  1  M  28.799999999999997  28.799999999999997  28.799999999999997
  26  1  M  30.0  30.0  30.0
  27  1  U  31.2  31.2  31.2
  28  1  M  32.4  32.4  32.4
  29  1  U  33.6  33.6  33.6
  30  1  M  34.8  34.8  34.8
  31  1  A  36.0  36.0  36.0
  32  1  M  37.199999999999996  37.199999999999996  37.199999999999996
  33  1  A  38.4  38.4  38.4
  34  1  U  39.6  39.6  39.6
  35  1  U  40.8  40.8  40.8
  36  1  A  42.0  42.0  42.0
  37  1  U  43.199999999999996  43.199999999999996  43.199999999999996
  38  1  A  44.4  44.4  44.4
  39  1  U  45.6  45.6  45.6
  40  1  U  46.8  46.8  46.8
  41  1  A  48.0  48.0  48.0
  42  1  U  49.199999999999996  49.199999999999996  49.199999999999996
  43  1  M  50.4  50.4  50.4
  44  1  M  51.6  51.6  51.6
  45  1  A  52.8  52.8  52.8
  46  1  U  54.0  54.0  54.0
  47  1  M  55.199999999999996  55.199999999999996  55.199999999999996
  48  1  U  56.4  56.4  56.4
  49  1  U  57.599999999999994  57.599999999999994  57.599999999999994
  50  1  M  58.8  58.8  58.8
  51  1  U  60.0  60.0  60.0
  52  1  M  61.199999999999996  61.199999999999996  61.199999999999996
  53  1  A  62.4  62.4  62.4
  54  1  U  63.599999999999994  63.599999999999994  63.599999999999994
  55  1  M  64.8  64.8  64.8
  56  1  M  66.0  66.0  66.0
  57  1  A  67.2  67.2  67.2
  58  1  U  68.39999999999999  68.39999999999999  68.39999999999999
  59  1  M  69.6  69.6  69.6
  60  1  M  70.8  70.8  70.8
  61  1  A  72.0  72.0  72.0
  62  1  A  73.2  73.2  73.2
  63  1  U  74.39999999999999  74.39999999999999  74.39999999999999
  64  1  M  75.6  75.6  75.6
  65  1  U  76.8  76.8  76.8
  66  1  A  78.0  78.0  78.0
  67  1  U  79.2  79.2  79.2
  68  1  A  80.39999999999999  80.39999999999999  80.39999999999999
  69  1  A  81.6  81.6  81.6
  70  1  A  82.8  82.8  82.8
  71  1  M  84.0  84.0  84.0
  72  1  M  85.2  85.2  85.2
  73  1  A  86.39999999999999  86.39999999999999  86.39999999999999
  74  1  U  87.6  87.6  87.6
  75  1  A  88.8  88.8  88.8
  76  1  A  90.0  90.0  90.0
  77  1  U  91.2  91.2  91.2
  78  1  M  92.39999999999999  92.39999999999999  92.39999999999999
  79  1  U  93.6  93.6  93.6
  80  1  M  94.8  94.8  94.8
  81  1  U  96.0  96.0  96.0
  82  1  A  97.2  97.2  97.2
  83  1  M  98.39999999999999  98.39999999999999  98.39999999999999
  84  1  U  99.6  99.6  99.6
  85  1  U  100.8  100.8  100.8
  86  1  M  102.0  102.0  102.0
  87  1  M  103.2  103.2  103.2
  88  1  M  104.39999999999999  104.39999999999999  104.39999999999999
  89  1  M  105.6  105.6  105.6
  90  1  A  106.8  106.8  106.8
  91  1  U  108.0  108.0  108.0
  92  1  A  109.2  109.2  109.2
  93  1  A  110.39999999999999  110.39999999999999  110.39999999999999
  94  1  M  111.6  111.6  111.6
  95  1  U  112.8  112.8  112.8
  96  1  M  114.0  114.0  114.0
  97  1  M  115.19999999999999  115.19999999999999  115.19999999999999
  98  1  U  116.39999999999999  116.39999999999999  116.39999999999999
  99  1  M  117.6  117.6  117.6
  100  1  M  118.8  118.8  118.8
  101  1  U  120.0  120.0  120.0
  102  1  U  121.19999999999999  121.19999999999999  121.19999999999999
  103  1  A  122.39999999999999  122.39999999999999  122.39999999999999
  104  1  U  123.6  123.6  123.6
  105  1  U  124.8  124.8  124.8
  106  1  M  126.0  126.0  126.0
  107  1  U  127.19999999999999  127.19999999999999  127.19999999999999
  108  1  M  128.4  128.4  128.4
  109  1  A  129.6  129.6  129.6
  110  1  A  130.79999999999998  130.79999999999998  130.79999999999998
  111  1  M  132.0  132.0  132.0
  112  1  A  133.2  133.2  133.2
  113  1  U  134.4  134.4  134.4
  114  1  A  135.6  135.6  135.6
  115  1  U  136.79999999999998  136.79999999999998  136.79999999999998
  116  1  A  138.0  138.0  138.0
  117  1  U  139.2  139.2  139.2
  118  1  U  140.4  140.4  140.4
  119  1  A  141.6  141.6  141.6
  120  1  U  142.79999999999998  142.79999999999998  142.79999999999998
  121  1  U  144.0  144.0  144.0
  122  1  U  145.2  145.2  145.2
  123  1  M  146.4  146.4  146.4
  124  1  U  147.6  147.6  147.6
  125  1  M  148.79999999999998  148.79999999999998  148.79999999999998
  126  1  U  150.0  150.0  150.0
  127  1  M  151.2  151.2  151.2
  128  1  U  152.4  152.4  152.4
  129  1  M  153.6  153.6  153.6
  130  1  U  154.79999999999998  154.79999999999998  154.79999999999998
  131  1  M  156.0  156.0  156.0
  132  1  A  157.2  157.2  157.2
  133  1  M  158.4  158.4  158.4
  134  1  A  159.6  159.6  159.6
  135  1  U  160.79999999999998  160.79999999999998  160.79999999999998
  136  1  M  162.0  162.0  162.0
  137  1  M  163.2  163.2  163.2
  138  1  U  164.4  164.4  164.4
  139  1  A  165.6  165.6  165.6
  140  1  A  166.79999999999998  166.79999999999998  166.79999999999998
  141  1  A  168.0  168.0  168.0
  142  1  A  169.2  169.2  169.2
  143  1  A  170.4  170.4  170.4
  144  1  A  171.6  171.6  171.6
  145  1  U  172.79999999999998  172.79999999999998  172.79999999999998
  146  1  U  174.0  174.0  174.0
  147  1  A  175.2  175.2  175.2
  148  1  M  176.4  176.4  176.4
  149  1  M  177.6  177.6  177.6
  150  1  M  178.79999999999998  178.79999999999998  178.79999999999998
  151  1  U  180.0  180.0  180.0
  152  1  A  181.2  181.2  181.2
  153  1  M  182.4  182.4  182.4
  154  1  A  183.6  183.6  183.6
  155  1  M  184.79999999999998  184.79999999999998  184.79999999999998
  156  1  M  186.0  186.0  186.0
  157  1  U  187.2  187.2  187.2
  158  1  M  188.4  188.4  188.4
  159  1  U  189.6  189.6  189.6
  160  1  M  190.79999999999998  190.79999999999998  190.79999999999998
  161  1  M  192.0  192.0  192.0
  162  1  U  193.2  193.2  193.2
  163  1  A  194.4  194.4  194.4
  164  1  U  195.6  195.6  195.6
  165  1  M  196.79999999999998  196.79999999999998  196.79999999999998
  166  1  A  198.0  198.0  198.0
  167  1  M  199.2  199.2  199.2
  168  1  U  200.4  200.4  200.4
  169  1  A  201.6  201.6  201.6
  170  1  M  202.79999999999998  202.79999999999998  202.79999999999998
  171  1  A  204.0  204.0  204.0
  172  1  M  205.2  205.2  205.2
  173  1  A  206.4  206.4  206.4
  174  1  U  207.6  207.6  207.6
  175  1  U  208.79999999999998  208.79999999999998  208.79999999999998
  176  1  U  210.0  210.0  210.0
  177  1  U  211.2  211.2  211.2
  178  1  M  212.4  212.4  212.4
  179  1  A  213.6  213.6  213.6
  180  1  U  214.79999999999998  214.79999999999998  214.79999999999998
  181  1  M  216.0  216.0  216.0
  182  1  M  217.2  217.2  217.2
  183  1  M  218.4  218.4  218.4
  184  1  M  219.6  219.6  219.6
  185  1  M  220.79999999999998  220.79999999999998  220.79999999999998
  186  1  M  222.0  222.0  222.0
  187  1  U  223.2  223.2  223.2
  188  1  M  224.4  224.4  224.4
  189  1  M  225.6  225.6  225.6
  190  1  A  226.79999999999998  226.79999999999998  226.79999999999998
  191  1  U  228.0  228.0  228.0
  192  1  A  229.2  229.2  229.2
  193  1  M  230.39999999999998  230.39999999999998  230.39999999999998
  194  1  M  231.6  231.6  231.6
  195  1  U  232.79999999999998  232.79999999999998  232.79999999999998
  196  1  U  234.0  234.0  234.0
  197  1  M  235.2  235.2  235.2
  198  1  U  236.39999999999998  236.39999999999998  236.39999999999998
  199  1  A  237.6  237.6  237.6
  200  1  M  238.79999999999998  238.79999999999998  238.79999999999998
  1201  1002  P  108.02333484422165  109.38487661472591  113.21623332730746
  1202  1003  P  117.846577594164  114.60517864481703  110.52973424944868
  1203  1004  P  117.33296693758722  110.03857043372162  107.21498963249566
  1204  1005  P  100.09640016978796  129.43925091669448  108.05000983213979
  1205  1006  P  113.89118701735185  121.75979965868949  109.3385455741017
  1206  1007  P  120.6563321983727  102.1554294186663  113.74986172839118
  1207  1008  P  129.35731289131053  106.65287485895963  128.50841079648742
  1208  1009  P  106.43083084495214  114.52369907373827  114.45589521026535
  1209  1010  P  107.97777829916201  116.0764662327871  116.18706383621631
  1210  1011  P  127.89094405864631  111.82460302296333  119.25682130662358
  211  2  N  108.84112384775484  124.47085756396788  3.444256208174451
  212  3  N  194.7103553064992  68.01913033970868  102.67816606806619
  213  4  N  32.778926293750644  73.07903263624036  31.0319728716387
  214  5  N  67.70907213041703  5.360372685022412  100.79807205410158
  215  6  N  107.18880634172457  192.5729545266611  62.87091229795813
  216  7  N  21.502049540300717  143.4798020528129  55.868621287401346
  217  8  N  172.40157311690714  155.59551641358297  59.169242415745266
  218  9  N  173.93572561247697  158.74625865699954  67.10037124888144
  219  10  N  111.89639134691436  117.70788698407144  197.69803791008505
  220  11  N  67.6096560341787  172.8668701919891  160.34305963571614
  221  12  N  45.52346243052536  85.3753633855115  17.426233837036463
  222  13  N  145.99213312430237  128.3113927880498  184.16168207133938
  223  14  N  33.23169274776815  25.646804980128564  96.31278736597312
  224  15  N  52.12195563813961  146.44650604613224  174.50110699976432
  225  16  N  68.44962195463117  48.127798323749076  179.45972777736318
  226  17  N  131.9920852359656  190.26704408441518  128.7813695733361
  227  18  N  71.5035707522076  193.45042971331355  78.6699576530518
  228  19  N  79.73905766949636  2.272104713945083  93.77483342890415
  229  20  N  11.341414232090983  113.94730591301132  144.10360333808566
  230  21  N  36.20299222782415  164.89096853204774  58.537920912118715
  231  22  N  76.03200652561577  164.12870160984562  172.89063670079483
  232  23  N  46.648488600563304  137.2012311698713  175.95844015540058
  233  24  N  165.90703863545718  63.06208068786444  34.48776927020026
  234  25  N  187.19909545305381  51.048391352571855  99.75966066021637
  235  26  N  154.250851089523  18.46820652865739  120.23392718699805
  236  27  N  25.286312972867137  53.43676081734945  52.568684103949685
  237  28  N  159.56777847395534  145.09425265969833  33.53054728116777
  238  29  N  86.43347679999636  69.68250711674753  194.322844918597
  239  30  N  180.4788883252209  159.3164807844139  102.16878797693077
  240  31  N  179.7424204361226  145.64153409383124  139.47146752466017
  241  32  N  71.2144779038104  41.8820547178095  176.11634616707565
  242  33  N  194.54590351186087  103.94641367725389  132.33416070062557
  243  34  N  74.15831831791098  175.31335423028776  39.50118875196984
  244  35  N  1.4670688100643332  112.99841325720786  88.94094380544858
  245  36  N  16.950287058702287  137.68477330638527  58.98045537534088
  246  37  N  55.90949938744863  52.04867354833491  175.8729072018494
  247  38  N  142.56003248892077  183.56241636898304  134.72702413278057
  248  39  N  76.2838346487028  42.98547147149235  21.34323272787067
  249  40  N  139.3069123501166  175.10287404594538  153.05209658005157
  250  41  N  13.406276708239417  54.440103876985084  120.63547798647008
  251  42  N  173.76884488449798  33.0151651991914  91.5626170458335
  252  43  N  49.132760574142736  26.26012300651537  55.559539896865736
  253  44  N  71.70968786721468  186.92758694905078  140.53705547575942
  254  45  N  63.21174061894086  163.26695487202016  31.853713285802016
  255  46  N  139.62075521275662  83.54248493722133  190.32909804890798
  256  47  N  31.41012644063001  98.88886404360605  172.76121646863834
  257  48  N  50.55404641169429  46.56078052263432  31.44821304011792
  258  49  N  31.543352444835904  156.32193243875022  53.723360840777325
  259  50  N  95.20845029436906  172.50507680553062  168.70265561710534
  260  51  N  75.69058113303394  190.13337342041063  135.84727535262903
  261  52  N  150.65478960049114  183.5564483437326  121.26998426682832
  262  53  N  14.081246131971994  107.61725669588597  150.59590036943905
  263  54  N  74.31787322192342  145.6848180952617  14.833540875778738
  264  55  N  126.54759601997003  167.53403642178046  168.8068242992082
  265  56  N  86.08301362628113  195.7341986392782  74.67647928962194
  266  57  N  103.14205630116074  136.24183900075508  6.851427342960932
  267  58  N  158.4432499058891  20.790864169912496  82.38468446241907
  268  59  N  180.75444082375458  88.14905658584915  42.22218914291307
  269  60  N  7.341877267824742  127.06652260159582  73.88725127439763
  270  61  N  28.248067866430304  32.53548815750655  82.67372293440772
  271  62  N  127.8940154587045  19.913658033939853  47.00847490319959
  272  63  N  8.779214640387607  76.25360350555178  133.389773462903
  273  64  N  159.7612513048438  146.0936437219306  34.39535953215629
  274  65  N  6.639581035389298  135.4420564115128  94.73760434065419
  275  66  N  34.30849522072319  79.38568239326119  27.476375508095657
  276  67  N  151.68315910201443  183.73594553253417  82.19150508862884
  277  68  N  153.17634424825667  184.591042513819  104.07822741104152
  278  69  N  172.2400282238238  32.22329551071941  113.70024272755325
  279  70  N  20.558778274202695  119.18264292404211  157.62914628173323
  280  71  N  186.13548437193822  147.3381346791141  118.43310438080474
  281  72  N  90.1569267304746  52.94931536948464  187.68892167435143
  282  73  N  24.627684998108506  165.6221629635047  103.57013434577395
  283  74  N  124.72465775464559  102.11087922012821  196.87226376953146
  284  75  N  187.38408295360983  54.56592214879937  117.31376955396114
  285  76  N  81.01189983831345  30.18291166756171  30.97083059292784
  286  77  N  156.88901749126802  113.849132664956  181.06689344798312
  287  78  N  184.82275698255455  53.68136928311898  125.68432102259476
  288  79  N  185.87253494174547  100.01646300573216  151.24360908101758
  289  80  N  78.70341103079865  25.919743013505723  36.29308653613912
  290  81  N  198.6730720688538  112.37986192482691  110.50542084911413
  291  82  N  63.623221730649824  36.96739718322359  31.417050334029483
  292  83  N  46.749745305988704  121.88147075305369  18.23441058301981
  293  84  N  25.174363641512386  55.56600204167076  149.26199314874063
  294  85  N  149.2477845184883  78.8385287913061  184.42066012715233
  295  86  N  161.94694519849685  25.0254909369837  76.73201832272265
  296  87  N  69.62803961394596  180.1907493985787  48.55111533568181
  297  88  N  41.55322932541575  74.30651666864989  23.033644285219054
  298  89  N  196.83454195013246  117.41528044069571  82.11762061469564
  299  90  N  149.49737046245065  184.9738016336704  81.84887460170702
  300  91  N  84.51051831753085  167.63580309070002  27.98976393953076
  301  92  N  172.5197055730943  130.43175874124347  161.7640701662906
  302  93  N  15.829073480301034  75.43080936191681  148.07920548641547
  303  94  N  20.624549223708513  91.2564878554524  160.19209922771157
  304  95  N  100.22019166423141  182.26159383549455  156.85931493849645
  305  96  N  192.10396236086962  123.20801715814477  68.72304271488717
  306  97  N  48.212430521303155  110.90480819342245  15.152296402590764
  307  98  N  177.05237184457022  161.46287312765438  116.88926345403922
  308  99  N  150.4833090086744  94.28222989649693  13.86787697625131
  309  100  N  1.8359344003353897  118.39451228445347  94.95439371712037
  310  101  N  31.94038773315927  126.95473277217707  168.12731874415596
  311  102  N  61.67658232817693  113.71134045919905  191.34174730517765
  312  103  N  86.5494401654318  4.198137656739064  125.31966847530956
  313  104  N  3.1416669639511667  100.06657179914555  75.13116629848899
  314  105  N  162.47540822115374  136.92731479579703  168.79823245965193
  315  106  N  106.28232584768482  191.04165851055183  140.88947049781368
  316  107  N  75.72242224515725  139.97425415286767  11.610757310182223
  317  108  N  36.52924279837672  46.60295593346181  44.14108249161316
  318  109  N  52.102999572887065  12.21856802140708  100.54548132214413
  319  110  N  158.59088485345896  164.73711950440872  51.253578896901395
  320  111  N  159.42846013064963  36.75238746541614  149.6789455924231
  321  112  N  156.21810120684015  99.86504714470297  182.70131126181934
  322  113  N  129.77402032453867  40.94827366623317  24.990658377000358
  323  114  N  190.5994616406668  88.09257432859383  140.61958596910222
  324  115  N  162.38759372739594  151.6879682983644  158.6186154910935
  325  116  N  196.99148082227364  107.24575191149876  123.24116449620239
  326  117  N  166.09576636945016  172.95217108605033  117.58779127311627
  327  118  N  31.212079836154686  49.19898967387238  151.84090459643926
  328  119  N  42.95598096305051  26.86363869023974  62.6228338891196
  329  120  N  41.75320509202015  23.034582965120478  73.85357646646854
  330  121  N  136.34607728577402  81.83338631797328  8.62748327169409
  331  122  N  182.2762926395225  154.7502501025295  84.73494896156164
  332  123  N  6.468946476137745  72.75747646105887  122.57846181533752
  333  124  N  140.55319699789115  31.298424091092727  39.704629689478786
  334  125  N  6.946136666308689  63.49138387593274  102.8459563208518
  335  126  N  50.11044001511383  138.51719179930558  22.363296435191472
  336  127  N  148.99793260513596  171.37708953433037  49.95488345471919
  337  128  N  25.451081730367534  145.70008365663278  51.4823626028181
  338  129  N  7.195542037774544  99.482874488089  137.24332374456475
  339  130  N  58.35088992040022  190.27438935367616  110.76504790506127
  340  131  N  4.010833867001779  76.57701590480491  115.40921156866584
  341  132  N  28.5824570504861  169.96781195292277  102.00993770420243
  342  133  N  81.62360048720367  96.88425861398296  1.7523532263415547
  343  134  N  94.46821290651798  34.66363616082927  175.50204561353215
  344  135  N  96.29362743924469  81.48434208021874  198.2009837742908
  345  136  N  114.54347119709725  187.2608291539757  146.6265497426077
  346  137  N  112.85797662005186  134.5872401175865  7.057032227894638
  347  138  N  178.81184063414577  57.25053340033865  144.28517676720332
  348  139  N  55.81562183516879  138.9057207610917  19.166308891359236
  349  140  N  19.219487716075562  63.724947223789776  146.4610523043753
  350  141  N  43.63394724787402  147.4652019910211  167.60120337017764
  351  142  N  46.175203830725984  123.88988557008405  19.178191774840897
  352  143  N  176.01063301369518  83.43219433049799  162.8322487593351
  353  144  N  59.81946679233465  14.154271915744715  68.1246847728245
  354  145  N  134.16201938899815  6.016191969925899  100.01610688967186
  355  146  N  48.418155061138535  45.281045547388864  34.082253555538486
  356  147  N  177.8821013421233  161.98411495745088  90.39022458760081
  357  148  N  19.18555981983205  105.34886428294091  41.344941315784745
  358  149  N  29.602840304754423  30.38510688044569  85.9285195236918
  359  150  N  158.65184185768402  44.69579546197091  40.82731705324605
  360  151  N  88.11922966242439  155.44224287115713  17.628858198994166
  361  152  N  31.882786682795825  170.4176513036743  120.03496031372751
  362  153  N  141.34315107835474  156.1322110097115  28.306773359866426
  363  154  N  67.05681927094533  31.482268360332796  164.96204502944306
  364  155  N  24.128419435390356  59.52952583018292  48.954491058486674
  365  156  N  11.167816628365316  77.13660336066764  139.82597508587625
  366  157  N  123.11528205872582  144.9688499033865  13.724358746444295
  367  158  N  127.97198564909816  116.504468149306  194.57891176131807
  368  159  N  151.15920589272173  14.781013662429913  89.02457198906805
  369  160  N  80.7965349653914  198.07409737968766  103.563474964709
  370  161  N  9.568607948261416  141.4257794907631  110.29893806017996
  371  162  N  172.29945067166057  46.372099667024344  143.55270070216716
  372  163  N  150.49432792892227  107.39072763987771  14.001744250481394
  373  164  N  138.7035448554145  185.7253098761975  133.95889960312073
  374  165  N  189.44593808260666  133.02478216409224  69.85389040793572
  375  166  N  57.4777695683407  30.66906331130636  158.18145011071158
  376  167  N  1.1927772751801342  100.61594840228345  84.61320874991917
  377  168  N  166.59186850420784  26.2584504234964  88.6992515657434
  378  169  N  91.83674844118818  2.5088432234210245  120.70834793874334
  379  170  N  138.53895569820563  83.06772404720468  9.291417579425627
  380  171  N  35.26251609998647  24.45630841360841  110.1098387620989
  381  172  N  56.67545712623836  188.252797167094  118.28736659454701
  382  173  N  77.06766034596639  61.666386335936345  10.531335868660975
  383  174  N  28.944360576426277  125.13570191341422  34.27867472861598
  384  175  N  17.950450665968773  132.18290198782577  147.24544712164735
  385  176  N  155.71213448640194  143.43104151082377  29.219333824453386
  386  177  N  6.013136797345851  134.01106297076961  96.88276710463974
  387  178  N  119.60569407472977  187.24665421386982  144.76201613347567
  388  179  N  29.074689545702512  36.90595419483272  131.44426372006464
  389  180  N  146.6404328883503  179.13385234334459  60.4714858198664
  390  181  N  4.86153574523415  69.71239031635913  105.59761725165876
  391  182  N  95.77215396778891  1.5138697767981313  83.18906690315977
  392  183  N  5.228428067336452  116.5110158404318  72.69184170748622
  393  184  N  80.84435355629574  98.23153903587674  198.13222587479697
  394  185  N  36.497689860184764  39.244832682280816  147.71023214261976
  395  186  N  144.13785145172477  42.18303704648904  31.377490106687162
  396  187  N  96.83848353799594  101.02480876898082  0.055242355351637684
  397  188  N  101.3917472644218  142.98080439221755  9.718697985962194
  398  189  N  196.35596525715698  107.8694397403233  125.56559949492629
  399  190  N  23.561912365433358  74.28546476287998  40.87317498538228
  400  191  N  167.7335899509018  62.61028529478817  36.64252193603378
  401  192  N  176.90562095735805  101.55728671597956  163.89914180368467
  402  193  N  112.09433335047103  16.09379608407319  153.04221003339313
  403  194  N  80.938848687743  39.31877831090008  177.16515952792136
  404  195  N  139.11540181358748  118.75778665604372  9.899329743181468
  405  196  N  6.021141154570699  69.27234789696958  114.95946143235129
  406  197  N  189.45740556192402  110.56054532090747  143.42634537529617
  407  198  N  3.027569571943758  90.54106921210841  77.48608507554343
  408  199  N  152.62231473704182  123.25025097783708  18.20563698406046
  409  200  N  89.96672244686928  135.27118045034175  6.966257888971953
  410  201  N  5.5510033144892645  125.13704339850872  78.84542427081385
  411  202  N  101.36888889479022  35.064678464678195  23.963626070819927
  412  203  N  121.98238905504748  11.70269797665678  58.52276495677373
  413  204  N  181.43197809809675  157.03983382228859  89.26266790320798
  414  205  N  105.65123371221704  187.21979570590224  51.41223616433271
  415  206  N  163.60922911215653  133.28193408813272  169.61450161503973
  416  207  N  134.50771917892118  101.55315384962151  6.155420880116253
  417  208  N  161.66459223476434  23.75333186320043  119.59397005604008
  418  209  N  64.38558690245  12.005889794344753  68.55719241492488
  419  210  N  3.8575405025288774  107.13906971481646  126.5642836414633
  420  211  N  194.83317075591694  105.41754577199765  68.73788359391818
  421  212  N  29.211430184053143  77.45591994401754  33.0616489757757
  422  213  N  131.49307499615148  6.82194348008656  81.94353272484908
  423  214  N  39.69241288438814  165.2176294220224  145.93098898200037
  424  215  N  172.14362893034  75.34606775982361  164.71074431543963
  425  216  N  133.2578369179734  32.01811675487592  34.63655582832402
  426  217  N  172.20546012150834  123.61674849125247  165.0278457227532
  427  218  N  21.543365338656713  55.36449371670336  56.96248082834824
  428  219  N  166.8710107340183  111.82601844494408  173.40581183496747
  429  220  N  12.021001885674892  142.18685783228653  78.09189836982623
  430  221  N  87.56339197206249  154.15242288879054  183.14352576137864
  431  222  N  109.23060199655411  10.618023671051247  56.11767674436033
  432  223  N  85.72492199374383  41.340198544693614  179.71982088000033
  433  224  N  90.22470545711697  188.5597441422662  145.405014415329
  434  225  N  118.90711163096404  58.114121798917516  11.185055665736371
  435  226  N  74.89298796564469  4.623978200608036  116.5242976379829
  436  227  N  95.64834464474916  198.8205971569776  114.6817122028551
  437  228  N  123.29271165139508  48.12541574464861  17.741401104447363
  438  229  N  9.630753608097493  73.49684560063116  66.36992248830175
  439  230  N  10.77821907208525  55.868320273343805  90.41518635783514
  440  231  N  28.533191282937736  32.689788760633206  80.97815164841617
  441  232  N  88.04042829581454  23.856829538911597  36.28825668068656
  442  233  N  83.87717509770964  36.56210043323281  175.60216541691676
  443  234  N  0.9229322601545533  113.36585248109503  97.74419958159335
  444  235  N  53.36745840545681  173.39264279211147  149.3854841873878
  445  236  N  58.94697261048016  139.77547088108713  182.05218375121484
  446  237  N  88.94249158875749  8.137013375598002  62.06685886747262
  447  238  N  52.05936960563828  186.75458186437183  86.7584561727415
  448  239  N  111.9568636961724  199.27440722007756  101.27494378439391
  449  240  N  122.56291178450567  167.8904617514804  169.86988059940703
  450  241  N  92.748008978414  54.65744965736777  11.166100194527658
  451  242  N  72.9679042519241  191.1115656337309  131.11186923405933
  452  243  N  160.26107457510554  120.4382055624256  177.14196422467867
  453  244  N  187.33274561017316  109.30826470498373  52.18423113270339
  454  245  N  58.98275602583188  60.45038987943567  17.820841838852317
  455  246  N  46.73083862377416  54.28964171850653  28.775288052171746
  456  247  N  95.97355109407839  61.33352000528658  192.13409268032345
  457  248  N  86.38425151331136  65.4820410492103  192.8607662202872
  458  249  N  139.58493183362634  142.81511180068753  18.76023527100918
  459  250  N  50.03595319423691  122.13095983871474  183.7485202460838
  460  251  N  93.40389885986673  164.32259780402967  23.717008045763123
  461  252  N  159.1119739073856  174.03713746995936  67.99567504184928
  462  253  N  159.800308974455  136.12425469938208  171.54691655811513
  463  254  N  129.39705031735892  137.2021493179149  188.0443838002529
  464  255  N  0.9048935878340671  95.3800874789744  112.60223366945645
  465  256  N  56.74578862308995  133.9653918403251  183.51901193916723
  466  257  N  126.67406646212117  38.12733206224502  173.89362043261008
  467  258  N  36.58520106387183  50.45603903096973  40.63705526686162
  468  259  N  157.9567763187564  149.04602280999595  165.08071700019136
  469  260  N  192.9869986700631  105.77749227216225  63.66766369501146
  470  261  N  37.18028366136919  111.7688788855352  23.089813880659705
  471  262  N  180.54642245555624  67.27011551593179  149.40676564267915
  472  263  N  23.56426333782626  155.61118347654198  67.36605397367319
  473  264  N  173.97449103378838  162.56578256879564  124.76484459563903
  474  265  N  61.23802987719068  130.50676517994552  13.01237472804479
  475  266  N  134.54998805447224  26.169365429097184  42.07474018794878
  476  267  N  176.93962838393517  85.15423256511923  37.871932482883466
  477  268  N  192.33673888629005  106.74105933494035  62.20469908986166
  478  269  N  85.29894476088882  170.17269879878387  30.288657177244374
  479  270  N  39.60057535316977  170.24090191664408  137.65800313702601
  480  271  N  123.79227096599536  184.55857708245486  147.78885732125426
  481  272  N  5.769290807325461  90.56209772863043  132.11696507706918
  482  273  N  178.52115387054337  161.9194384783336  99.35849133574698
  483  274  N  134.340594118988  116.04958052757823  192.5372063574631
  484  275  N  81.308134271357  8.131783793878043  65.20280174083534
  485  276  N  154.23375162983993  22.481016732058052  132.3961018836738
  486  277  N  152.32729006758797  126.40610916734495  181.02204707871044
  487  278  N  58.425817756565245  115.84750499207207  189.5569313694698
  488  279  N  124.50287197380514  195.50560486024267  83.31801254902453
  489  280  N  138.17488063043817  192.08549369702143  92.06650521978992
  490  281  N  185.8963437619837  57.37753664170173  128.375054988381
  491  282  N  70.20282967560627  49.84468896971662  181.21929214241283
  492  283  N  140.89196165028136  108.51634441446316  190.85878796355453
  493  284  N  94.75868798184551  4.6155736927286455  70.43076148493053
  494  285  N  31.35971536706009  125.62301823396128  168.05859432937976
  495  286  N  87.15685644915251  48.50438668687211  15.245911760923704
  496  287  N  180.5732105842095  78.80856976591627  155.30715162423925