LAMMPS (17 Apr 2024)
OMP_NUM_THREADS environment is not set. Defaulting to 1 thread. (src/comm.cpp:98)
  using 1 OpenMP thread(s) per MPI task
Reading restart file ...
  restart file = 17 Apr 2024, LAMMPS = 17 Apr 2024
  restoring atom style bond from restart
  orthogonal box = (0 0 0) to (500 500 500)
  1 by 2 by 5 MPI processor grid
  restoring pair style morse from restart
  restoring bond style harmonic from restart
  2210 atoms
  229 bonds
Finding 1-2 1-3 1-4 neighbors ...
  special bond factors lj:    0        0        0.5     
  special bond factors coul:  0        0        0.5     
    12 = max # of 1-2 neighbors
    42 = max # of 1-3 neighbors
   304 = max # of 1-4 neighbors
    21 = max # of special neighbors
  special bonds CPU = 0.001 seconds
  read_restart CPU = 0.002 seconds
200 atoms in group chromatin
73 atoms in group Mtype
210 atoms in group chromatin_and_poly
10 atoms in group polymerases
1000 atoms in group nucleus
30 atoms in group cenH
3 atoms in group promoter
13 atoms in group promo_and_poly
8 atoms in group yfp
6 atoms in group mcherry
170 atoms in group outOFCenH
73 atoms in group M_Atoms
197 atoms in group NotPromoter
24 atoms in group TranscriptionReactionGroup
1073 atoms in group nucleus_and_hetero
1000 atoms in group hp1
1210 atoms in group atoms_mobile
Read molecule template AM_post:
# This is a molecule template for molecule 1
  1 molecules
  0 fragments
  2 atoms with max type 2
  0 bonds with max type 0
  0 angles with max type 0
  0 dihedrals with max type 0
  0 impropers with max type 0
Read molecule template AM_pre:
# This is a molecule template for molecule 1
  1 molecules
  0 fragments
  2 atoms with max type 3
  0 bonds with max type 0
  0 angles with max type 0
  0 dihedrals with max type 0
  0 impropers with max type 0
Read molecule template AU_post:
# This is a molecule template for molecule 1
  1 molecules
  0 fragments
  2 atoms with max type 1
  0 bonds with max type 0
  0 angles with max type 0
  0 dihedrals with max type 0
  0 impropers with max type 0
Read molecule template AU_pre:
# This is a molecule template for molecule 1
  1 molecules
  0 fragments
  2 atoms with max type 2
  0 bonds with max type 0
  0 angles with max type 0
  0 dihedrals with max type 0
  0 impropers with max type 0
Read molecule template MA_post:
# This is a molecule template for molecule 1
  1 molecules
  0 fragments
  2 atoms with max type 3
  0 bonds with max type 0
  0 angles with max type 0
  0 dihedrals with max type 0
  0 impropers with max type 0
Read molecule template MA_pre:
# This is a molecule template for molecule 1
  1 molecules
  0 fragments
  2 atoms with max type 3
  0 bonds with max type 0
  0 angles with max type 0
  0 dihedrals with max type 0
  0 impropers with max type 0
Read molecule template MU_post:
# This is a molecule template for molecule 1
  1 molecules
  0 fragments
  2 atoms with max type 3
  0 bonds with max type 0
  0 angles with max type 0
  0 dihedrals with max type 0
  0 impropers with max type 0
Read molecule template MU_pre:
# This is a molecule template for molecule 1
  1 molecules
  0 fragments
  2 atoms with max type 3
  0 bonds with max type 0
  0 angles with max type 0
  0 dihedrals with max type 0
  0 impropers with max type 0
Read molecule template Transcription_MU_post:
# This is a molecule template
  1 molecules
  0 fragments
  2 atoms with max type 5
  0 bonds with max type 0
  0 angles with max type 0
  0 dihedrals with max type 0
  0 impropers with max type 0
Read molecule template Transcription_MU_pre:
# This is a molecule template
  1 molecules
  0 fragments
  2 atoms with max type 5
  0 bonds with max type 0
  0 angles with max type 0
  0 dihedrals with max type 0
  0 impropers with max type 0
Read molecule template Transcription_UA_post:
# This is a molecule template
  1 molecules
  0 fragments
  2 atoms with max type 5
  0 bonds with max type 0
  0 angles with max type 0
  0 dihedrals with max type 0
  0 impropers with max type 0
Read molecule template Transcription_UA_pre:
# This is a molecule template
  1 molecules
  0 fragments
  2 atoms with max type 5
  0 bonds with max type 0
  0 angles with max type 0
  0 dihedrals with max type 0
  0 impropers with max type 0
Read molecule template UnactivationPoly_post:
# This is a molecule template for molecule 1
  1 molecules
  0 fragments
  4 atoms with max type 6
  0 bonds with max type 0
  0 angles with max type 0
  0 dihedrals with max type 0
  0 impropers with max type 0
Read molecule template UnactivationPoly_pre:
# This is a molecule template for molecule 1
  1 molecules
  0 fragments
  4 atoms with max type 5
  0 bonds with max type 0
  0 angles with max type 0
  0 dihedrals with max type 0
  0 impropers with max type 0
Read molecule template ReactivationPoly_A_pre:
# This is a molecule template
  1 molecules
  0 fragments
  2 atoms with max type 6
  0 bonds with max type 0
  0 angles with max type 0
  0 dihedrals with max type 0
  0 impropers with max type 0
Read molecule template ReactivationPoly_A_post:
# This is a molecule template
  1 molecules
  0 fragments
  2 atoms with max type 5
  0 bonds with max type 0
  0 angles with max type 0
  0 dihedrals with max type 0
  0 impropers with max type 0
Read molecule template ReactivationPoly_U_pre:
# This is a molecule template
  1 molecules
  0 fragments
  2 atoms with max type 6
  0 bonds with max type 0
  0 angles with max type 0
  0 dihedrals with max type 0
  0 impropers with max type 0
Read molecule template ReactivationPoly_U_post:
# This is a molecule template
  1 molecules
  0 fragments
  2 atoms with max type 5
  0 bonds with max type 0
  0 angles with max type 0
  0 dihedrals with max type 0
  0 impropers with max type 0
dynamic group bond_react_MASTER_group defined

CITE-CITE-CITE-CITE-CITE-CITE-CITE-CITE-CITE-CITE-CITE-CITE-CITE

Your simulation uses code contributions which should be cited:
- fix bond/react: reacter.org doi:10.1016/j.polymer.2017.09.038, doi:10.1021/acs.macromol.0c02012
The log file lists these citations in BibTeX format.

CITE-CITE-CITE-CITE-CITE-CITE-CITE-CITE-CITE-CITE-CITE-CITE-CITE

Generated 0 of 45 mixed pair_coeff terms from geometric mixing rule
Neighbor list info ...
  update: every = 1 steps, delay = 0 steps, check = yes
  max neighbors/atom: 2000, page size: 100000
  master list distance cutoff = 10
  ghost atom cutoff = 10
  binsize = 5, bins = 100 100 100
  3 neighbor lists, perpetual/occasional/extra = 1 2 0
  (1) pair morse, perpetual
      attributes: half, newton on
      pair build: half/bin/newton
      stencil: half/bin/3d
      bin: standard
  (2) compute coord/atom, occasional
      attributes: full, newton on
      pair build: full/bin
      stencil: full/bin/3d
      bin: standard
  (3) fix bond/react, occasional, copy from (1)
      attributes: half, newton on
      pair build: copy
      stencil: none
      bin: none
Setting up Verlet run ...
  Unit style    : lj
  Current step  : 1000000
  Time step     : 0.001
0,0,0,0,
Per MPI rank memory allocation (min/avg/max) = 8.678 | 8.754 | 9.05 Mbytes
---
keywords: ['Step', 'Temp', 'c_R2[0]', 'f_4[1]', 'f_4[2]', 'f_4[3]', 'f_4[4]', ]
data:
  - [1000000, 0.0928319730192174, 29.2710732395759, 0, 0, 0, 0, ]
reacted_atom_IDs: 24 6
reacted_atom_IDs: 25 20
reacted_atom_IDs: 160 141
reacted_atom_IDs: 179 187
1,1,1,1,
  - [1010000, 0.597039207906147, 28.25021727907, 1, 1, 1, 1, ]
reacted_atom_IDs: 31 27
reacted_atom_IDs: 32 36
reacted_atom_IDs: 19 13
reacted_atom_IDs: 134 127
2,2,2,2,
  - [1020000, 0.547560458145456, 26.7178820443515, 2, 2, 2, 2, ]
reacted_atom_IDs: 147 153
reacted_atom_IDs: 188 192
reacted_atom_IDs: 144 135
reacted_atom_IDs: 123 118
3,3,3,3,
  - [1030000, 0.540030744589983, 25.2662657536416, 3, 3, 3, 3, ]
reacted_atom_IDs: 62 14
reacted_atom_IDs: 88 84
reacted_atom_IDs: 62 14
reacted_atom_IDs: 88 84
reacted_atom_IDs: 56 31
reacted_atom_IDs: 62 14
reacted_atom_IDs: 88 84
reacted_atom_IDs: 173 184
reacted_atom_IDs: 62 14
reacted_atom_IDs: 88 84
reacted_atom_IDs: 62 14
reacted_atom_IDs: 88 84
reacted_atom_IDs: 62 14
reacted_atom_IDs: 88 84
reacted_atom_IDs: 62 14
reacted_atom_IDs: 88 84
reacted_atom_IDs: 62 14
reacted_atom_IDs: 88 84
reacted_atom_IDs: 62 14
reacted_atom_IDs: 88 84
reacted_atom_IDs: 62 14
reacted_atom_IDs: 88 84
4,4,4,4,
  - [1040000, 0.553888792376611, 24.1216980333539, 4, 4, 4, 4, ]
reacted_atom_IDs: 14 6
reacted_atom_IDs: 61 13
reacted_atom_IDs: 14 6
reacted_atom_IDs: 61 13
reacted_atom_IDs: 14 6
reacted_atom_IDs: 61 13
reacted_atom_IDs: 14 6
reacted_atom_IDs: 61 13
reacted_atom_IDs: 14 6
reacted_atom_IDs: 61 13
reacted_atom_IDs: 188 154
reacted_atom_IDs: 156 164
reacted_atom_IDs: 14 6
reacted_atom_IDs: 61 13
reacted_atom_IDs: 14 6
reacted_atom_IDs: 61 13
reacted_atom_IDs: 14 6
reacted_atom_IDs: 61 13
reacted_atom_IDs: 14 6
reacted_atom_IDs: 61 13
reacted_atom_IDs: 14 6
reacted_atom_IDs: 61 13
5,5,5,5,
  - [1050000, 0.547187370282354, 22.8025955034526, 5, 5, 5, 5, ]
reacted_atom_IDs: 25 21
reacted_atom_IDs: 55 51
reacted_atom_IDs: 8 48
reacted_atom_IDs: 25 21
reacted_atom_IDs: 55 51
reacted_atom_IDs: 8 48
reacted_atom_IDs: 25 21
reacted_atom_IDs: 55 51
reacted_atom_IDs: 8 48
reacted_atom_IDs: 132 136
reacted_atom_IDs: 25 21
reacted_atom_IDs: 55 51
reacted_atom_IDs: 8 48
reacted_atom_IDs: 25 21
reacted_atom_IDs: 55 51
reacted_atom_IDs: 8 48
reacted_atom_IDs: 25 21
reacted_atom_IDs: 55 51
reacted_atom_IDs: 8 48
reacted_atom_IDs: 25 21
reacted_atom_IDs: 55 51
reacted_atom_IDs: 8 48
reacted_atom_IDs: 25 21
reacted_atom_IDs: 55 51
reacted_atom_IDs: 8 48
reacted_atom_IDs: 25 21
reacted_atom_IDs: 55 51
reacted_atom_IDs: 8 48
reacted_atom_IDs: 25 21
reacted_atom_IDs: 55 51
reacted_atom_IDs: 8 48
6,6,6,6,
  - [1060000, 0.546299042114048, 21.5737887176465, 6, 6, 6, 6, ]
reacted_atom_IDs: 43 39
reacted_atom_IDs: 89 82
reacted_atom_IDs: 61 18
reacted_atom_IDs: 43 39
reacted_atom_IDs: 89 82
reacted_atom_IDs: 61 18
reacted_atom_IDs: 43 39
reacted_atom_IDs: 89 82
reacted_atom_IDs: 61 18
reacted_atom_IDs: 187 193
reacted_atom_IDs: 43 39
reacted_atom_IDs: 89 82
reacted_atom_IDs: 61 18
reacted_atom_IDs: 43 39
reacted_atom_IDs: 89 82
reacted_atom_IDs: 61 18
reacted_atom_IDs: 43 39
reacted_atom_IDs: 89 82
reacted_atom_IDs: 61 18
reacted_atom_IDs: 43 39
reacted_atom_IDs: 89 82
reacted_atom_IDs: 61 18
reacted_atom_IDs: 43 39
reacted_atom_IDs: 89 82
reacted_atom_IDs: 61 18
reacted_atom_IDs: 43 39
reacted_atom_IDs: 89 82
reacted_atom_IDs: 61 18
reacted_atom_IDs: 43 39
reacted_atom_IDs: 89 82
reacted_atom_IDs: 61 18
7,7,7,7,
  - [1070000, 0.583418585458941, 19.8320964614085, 7, 7, 7, 7, ]
reacted_atom_IDs: 2 19
reacted_atom_IDs: 2 19
reacted_atom_IDs: 2 19
reacted_atom_IDs: 2 19
reacted_atom_IDs: 2 19
reacted_atom_IDs: 2 19
reacted_atom_IDs: 2 19
reacted_atom_IDs: 2 19
reacted_atom_IDs: 2 19
reacted_atom_IDs: 111 132
reacted_atom_IDs: 114 168
reacted_atom_IDs: 188 195
reacted_atom_IDs: 2 19
8,8,8,8,
  - [1080000, 0.575328733892255, 18.7607182323073, 8, 8, 8, 8, ]
reacted_atom_IDs: 9 49
reacted_atom_IDs: 48 44
reacted_atom_IDs: 9 49
reacted_atom_IDs: 48 44
reacted_atom_IDs: 9 49
reacted_atom_IDs: 48 44
reacted_atom_IDs: 9 49
reacted_atom_IDs: 48 44
reacted_atom_IDs: 9 49
reacted_atom_IDs: 48 44
reacted_atom_IDs: 9 49
reacted_atom_IDs: 48 44
reacted_atom_IDs: 9 49
reacted_atom_IDs: 48 44
reacted_atom_IDs: 185 140
reacted_atom_IDs: 194 198
reacted_atom_IDs: 9 49
reacted_atom_IDs: 48 44
reacted_atom_IDs: 9 49
reacted_atom_IDs: 48 44
reacted_atom_IDs: 9 49
reacted_atom_IDs: 48 44
9,9,9,9,
  - [1090000, 0.550990387747467, 17.8060357636662, 9, 9, 9, 9, ]
reacted_atom_IDs: 198 147
reacted_atom_IDs: 158 162
reacted_atom_IDs: 41 29
reacted_atom_IDs: 14 64
reacted_atom_IDs: 41 29
reacted_atom_IDs: 14 64
reacted_atom_IDs: 41 29
reacted_atom_IDs: 14 64
reacted_atom_IDs: 41 29
reacted_atom_IDs: 14 64
reacted_atom_IDs: 41 29
reacted_atom_IDs: 14 64
reacted_atom_IDs: 41 29
reacted_atom_IDs: 14 64
reacted_atom_IDs: 41 29
reacted_atom_IDs: 14 64
reacted_atom_IDs: 41 29
reacted_atom_IDs: 14 64
reacted_atom_IDs: 41 29
reacted_atom_IDs: 14 64
reacted_atom_IDs: 41 29
reacted_atom_IDs: 14 64
10,10,10,10,
  - [1100000, 0.540541104294051, 16.4371765657161, 10, 10, 10, 10, ]
reacted_atom_IDs: 60 21
reacted_atom_IDs: 96 92
reacted_atom_IDs: 33 56
reacted_atom_IDs: 60 21
reacted_atom_IDs: 96 92
reacted_atom_IDs: 33 56
reacted_atom_IDs: 135 177
reacted_atom_IDs: 60 21
reacted_atom_IDs: 96 92
reacted_atom_IDs: 33 56
reacted_atom_IDs: 60 21
reacted_atom_IDs: 96 92
reacted_atom_IDs: 33 56
reacted_atom_IDs: 60 21
reacted_atom_IDs: 96 92
reacted_atom_IDs: 33 56
reacted_atom_IDs: 60 21
reacted_atom_IDs: 96 92
reacted_atom_IDs: 33 56
reacted_atom_IDs: 60 21
reacted_atom_IDs: 96 92
reacted_atom_IDs: 33 56
reacted_atom_IDs: 60 21
reacted_atom_IDs: 96 92
reacted_atom_IDs: 33 56
reacted_atom_IDs: 60 21
reacted_atom_IDs: 96 92
reacted_atom_IDs: 33 56
reacted_atom_IDs: 60 21
reacted_atom_IDs: 96 92
reacted_atom_IDs: 33 56
11,11,11,11,
  - [1110000, 0.565209260707981, 15.3540892429206, 11, 11, 11, 11, ]
reacted_atom_IDs: 61 10
reacted_atom_IDs: 32 58
reacted_atom_IDs: 23 33
reacted_atom_IDs: 61 10
reacted_atom_IDs: 32 58
reacted_atom_IDs: 23 33
reacted_atom_IDs: 61 10
reacted_atom_IDs: 32 58
reacted_atom_IDs: 23 33
reacted_atom_IDs: 144 159
reacted_atom_IDs: 61 10
reacted_atom_IDs: 32 58
reacted_atom_IDs: 23 33
reacted_atom_IDs: 61 10
reacted_atom_IDs: 32 58
reacted_atom_IDs: 23 33
reacted_atom_IDs: 61 10
reacted_atom_IDs: 32 58
reacted_atom_IDs: 23 33
reacted_atom_IDs: 61 10
reacted_atom_IDs: 32 58
reacted_atom_IDs: 23 33
reacted_atom_IDs: 61 10
reacted_atom_IDs: 32 58
reacted_atom_IDs: 23 33
reacted_atom_IDs: 61 10
reacted_atom_IDs: 32 58
reacted_atom_IDs: 23 33
reacted_atom_IDs: 61 10
reacted_atom_IDs: 32 58
reacted_atom_IDs: 23 33
12,12,12,12,
  - [1120000, 0.558572407068341, 14.4965437548899, 12, 12, 12, 12, ]
reacted_atom_IDs: 24 20
reacted_atom_IDs: 84 92
reacted_atom_IDs: 24 20
reacted_atom_IDs: 84 92
reacted_atom_IDs: 24 20
reacted_atom_IDs: 84 92
reacted_atom_IDs: 24 20
reacted_atom_IDs: 84 92
reacted_atom_IDs: 24 20
reacted_atom_IDs: 84 92
reacted_atom_IDs: 24 20
reacted_atom_IDs: 84 92
reacted_atom_IDs: 152 180
reacted_atom_IDs: 167 114
reacted_atom_IDs: 24 20
reacted_atom_IDs: 84 92
reacted_atom_IDs: 24 20
reacted_atom_IDs: 84 92
reacted_atom_IDs: 24 20
reacted_atom_IDs: 84 92
reacted_atom_IDs: 24 20
reacted_atom_IDs: 84 92
13,13,13,13,
  - [1130000, 0.572567100179633, 13.5077095633603, 13, 13, 13, 13, ]
reacted_atom_IDs: 61 22
reacted_atom_IDs: 26 13
reacted_atom_IDs: 30 53
reacted_atom_IDs: 57 65
reacted_atom_IDs: 61 22
reacted_atom_IDs: 26 13
reacted_atom_IDs: 30 53
reacted_atom_IDs: 57 65
reacted_atom_IDs: 61 22
reacted_atom_IDs: 26 13
reacted_atom_IDs: 30 53
reacted_atom_IDs: 57 65
reacted_atom_IDs: 61 22
reacted_atom_IDs: 26 13
reacted_atom_IDs: 30 53
reacted_atom_IDs: 57 65
reacted_atom_IDs: 61 22
reacted_atom_IDs: 26 13
reacted_atom_IDs: 30 53
reacted_atom_IDs: 57 65
reacted_atom_IDs: 61 22
reacted_atom_IDs: 26 13
reacted_atom_IDs: 30 53
reacted_atom_IDs: 57 65
reacted_atom_IDs: 61 22
reacted_atom_IDs: 26 13
reacted_atom_IDs: 30 53
reacted_atom_IDs: 57 65
reacted_atom_IDs: 61 22
reacted_atom_IDs: 26 13
reacted_atom_IDs: 30 53
reacted_atom_IDs: 57 65
reacted_atom_IDs: 61 22
reacted_atom_IDs: 26 13
reacted_atom_IDs: 30 53
reacted_atom_IDs: 57 65
reacted_atom_IDs: 61 22
reacted_atom_IDs: 26 13
reacted_atom_IDs: 30 53
reacted_atom_IDs: 57 65
14,14,14,14,
  - [1140000, 0.554099971249651, 12.8773812237865, 14, 14, 14, 14, ]
reacted_atom_IDs: 12 46
reacted_atom_IDs: 93 89
reacted_atom_IDs: 119 157
reacted_atom_IDs: 12 46
reacted_atom_IDs: 93 89
reacted_atom_IDs: 119 157
reacted_atom_IDs: 12 46
reacted_atom_IDs: 93 89
reacted_atom_IDs: 119 157
reacted_atom_IDs: 12 46
reacted_atom_IDs: 93 89
reacted_atom_IDs: 119 157
reacted_atom_IDs: 158 166
reacted_atom_IDs: 12 46
reacted_atom_IDs: 93 89
reacted_atom_IDs: 119 157
reacted_atom_IDs: 12 46
reacted_atom_IDs: 93 89
reacted_atom_IDs: 119 157
reacted_atom_IDs: 12 46
reacted_atom_IDs: 93 89
reacted_atom_IDs: 119 157
reacted_atom_IDs: 12 46
reacted_atom_IDs: 93 89
reacted_atom_IDs: 119 157
reacted_atom_IDs: 12 46
reacted_atom_IDs: 93 89
reacted_atom_IDs: 119 157
reacted_atom_IDs: 12 46
reacted_atom_IDs: 93 89
reacted_atom_IDs: 119 157
15,15,15,15,
  - [1150000, 0.547694871814672, 11.9481311202988, 15, 15, 15, 15, ]
reacted_atom_IDs: 111 115
reacted_atom_IDs: 12 48
reacted_atom_IDs: 69 60
reacted_atom_IDs: 110 120
reacted_atom_IDs: 111 115
reacted_atom_IDs: 12 48
reacted_atom_IDs: 69 60
reacted_atom_IDs: 110 120
reacted_atom_IDs: 111 115
reacted_atom_IDs: 12 48
reacted_atom_IDs: 69 60
reacted_atom_IDs: 110 120
reacted_atom_IDs: 111 115
reacted_atom_IDs: 12 48
reacted_atom_IDs: 69 60
reacted_atom_IDs: 110 120
reacted_atom_IDs: 111 115
reacted_atom_IDs: 12 48
reacted_atom_IDs: 69 60
reacted_atom_IDs: 110 120
reacted_atom_IDs: 111 115
reacted_atom_IDs: 12 48
reacted_atom_IDs: 69 60
reacted_atom_IDs: 110 120
reacted_atom_IDs: 111 115
reacted_atom_IDs: 12 48
reacted_atom_IDs: 69 60
reacted_atom_IDs: 110 120
reacted_atom_IDs: 111 115
reacted_atom_IDs: 12 48
reacted_atom_IDs: 69 60
reacted_atom_IDs: 110 120
reacted_atom_IDs: 111 115
reacted_atom_IDs: 12 48
reacted_atom_IDs: 69 60
reacted_atom_IDs: 110 120
reacted_atom_IDs: 111 115
reacted_atom_IDs: 12 48
reacted_atom_IDs: 69 60
reacted_atom_IDs: 110 120
16,16,16,16,
  - [1160000, 0.559275778041727, 10.7225830092481, 16, 16, 16, 16, ]
reacted_atom_IDs: 97 90
reacted_atom_IDs: 111 107
reacted_atom_IDs: 49 64
reacted_atom_IDs: 97 90
reacted_atom_IDs: 111 107
reacted_atom_IDs: 49 64
reacted_atom_IDs: 97 90
reacted_atom_IDs: 111 107
reacted_atom_IDs: 49 64
reacted_atom_IDs: 97 90
reacted_atom_IDs: 111 107
reacted_atom_IDs: 49 64
reacted_atom_IDs: 97 90
reacted_atom_IDs: 111 107
reacted_atom_IDs: 49 64
reacted_atom_IDs: 97 90
reacted_atom_IDs: 111 107
reacted_atom_IDs: 49 64
reacted_atom_IDs: 97 90
reacted_atom_IDs: 111 107
reacted_atom_IDs: 49 64
reacted_atom_IDs: 97 90
reacted_atom_IDs: 111 107
reacted_atom_IDs: 49 64
reacted_atom_IDs: 187 178
reacted_atom_IDs: 97 90
reacted_atom_IDs: 111 107
reacted_atom_IDs: 49 64
reacted_atom_IDs: 97 90
reacted_atom_IDs: 111 107
reacted_atom_IDs: 49 64
17,17,17,17,
  - [1170000, 0.576206483130855, 8.7904829255714, 17, 17, 17, 17, ]
reacted_atom_IDs: 167 171
reacted_atom_IDs: 11 46
reacted_atom_IDs: 9 5
reacted_atom_IDs: 12 48
reacted_atom_IDs: 11 46
reacted_atom_IDs: 9 5
reacted_atom_IDs: 12 48
reacted_atom_IDs: 11 46
reacted_atom_IDs: 9 5
reacted_atom_IDs: 12 48
reacted_atom_IDs: 11 46
reacted_atom_IDs: 9 5
reacted_atom_IDs: 12 48
reacted_atom_IDs: 11 46
reacted_atom_IDs: 9 5
reacted_atom_IDs: 12 48
reacted_atom_IDs: 11 46
reacted_atom_IDs: 9 5
reacted_atom_IDs: 12 48
reacted_atom_IDs: 11 46
reacted_atom_IDs: 9 5
reacted_atom_IDs: 12 48
reacted_atom_IDs: 11 46
reacted_atom_IDs: 9 5
reacted_atom_IDs: 12 48
reacted_atom_IDs: 11 46
reacted_atom_IDs: 9 5
reacted_atom_IDs: 12 48
reacted_atom_IDs: 11 46
reacted_atom_IDs: 9 5
reacted_atom_IDs: 12 48
18,18,18,18,
  - [1180000, 0.554687965799588, 8.01700871785045, 18, 18, 18, 18, ]
reacted_atom_IDs: 110 114
reacted_atom_IDs: 68 23
reacted_atom_IDs: 198 180
reacted_atom_IDs: 110 114
reacted_atom_IDs: 68 23
reacted_atom_IDs: 198 180
reacted_atom_IDs: 110 114
reacted_atom_IDs: 68 23
reacted_atom_IDs: 198 180
reacted_atom_IDs: 110 114
reacted_atom_IDs: 68 23
reacted_atom_IDs: 198 180
reacted_atom_IDs: 110 114
reacted_atom_IDs: 68 23
reacted_atom_IDs: 198 180
reacted_atom_IDs: 110 114
reacted_atom_IDs: 68 23
reacted_atom_IDs: 198 180
reacted_atom_IDs: 110 114
reacted_atom_IDs: 68 23
reacted_atom_IDs: 198 180
reacted_atom_IDs: 186 193
reacted_atom_IDs: 110 114
reacted_atom_IDs: 68 23
reacted_atom_IDs: 198 180
reacted_atom_IDs: 110 114
reacted_atom_IDs: 68 23
reacted_atom_IDs: 198 180
reacted_atom_IDs: 110 114
reacted_atom_IDs: 68 23
reacted_atom_IDs: 198 180
19,19,19,19,
  - [1190000, 0.569136507284791, 7.66268939850126, 19, 19, 19, 19, ]
reacted_atom_IDs: 157 137
reacted_atom_IDs: 111 105
reacted_atom_IDs: 51 6
reacted_atom_IDs: 18 22
reacted_atom_IDs: 157 137
reacted_atom_IDs: 111 105
reacted_atom_IDs: 51 6
reacted_atom_IDs: 18 22
reacted_atom_IDs: 157 137
reacted_atom_IDs: 111 105
reacted_atom_IDs: 51 6
reacted_atom_IDs: 18 22
reacted_atom_IDs: 157 137
reacted_atom_IDs: 111 105
reacted_atom_IDs: 51 6
reacted_atom_IDs: 18 22
reacted_atom_IDs: 157 137
reacted_atom_IDs: 111 105
reacted_atom_IDs: 51 6
reacted_atom_IDs: 18 22
reacted_atom_IDs: 157 137
reacted_atom_IDs: 111 105
reacted_atom_IDs: 51 6
reacted_atom_IDs: 18 22
reacted_atom_IDs: 157 137
reacted_atom_IDs: 111 105
reacted_atom_IDs: 51 6
reacted_atom_IDs: 18 22
reacted_atom_IDs: 157 137
reacted_atom_IDs: 111 105
reacted_atom_IDs: 51 6
reacted_atom_IDs: 18 22
reacted_atom_IDs: 157 137
reacted_atom_IDs: 111 105
reacted_atom_IDs: 51 6
reacted_atom_IDs: 18 22
reacted_atom_IDs: 157 137
reacted_atom_IDs: 111 105
reacted_atom_IDs: 51 6
reacted_atom_IDs: 18 22
20,20,20,20,
  - [1200000, 0.544425953897227, 7.11889405468643, 20, 20, 20, 20, ]
reacted_atom_IDs: 29 37
reacted_atom_IDs: 51 2
reacted_atom_IDs: 13 6
reacted_atom_IDs: 57 25
reacted_atom_IDs: 29 37
reacted_atom_IDs: 51 2
reacted_atom_IDs: 13 6
reacted_atom_IDs: 57 25
reacted_atom_IDs: 29 37
reacted_atom_IDs: 51 2
reacted_atom_IDs: 13 6
reacted_atom_IDs: 57 25
reacted_atom_IDs: 29 37
reacted_atom_IDs: 51 2
reacted_atom_IDs: 13 6
reacted_atom_IDs: 57 25
reacted_atom_IDs: 29 37
reacted_atom_IDs: 51 2
reacted_atom_IDs: 13 6
reacted_atom_IDs: 57 25
reacted_atom_IDs: 29 37
reacted_atom_IDs: 51 2
reacted_atom_IDs: 13 6
reacted_atom_IDs: 57 25
reacted_atom_IDs: 29 37
reacted_atom_IDs: 51 2
reacted_atom_IDs: 13 6
reacted_atom_IDs: 57 25
reacted_atom_IDs: 29 37
reacted_atom_IDs: 51 2
reacted_atom_IDs: 13 6
reacted_atom_IDs: 57 25
reacted_atom_IDs: 29 37
reacted_atom_IDs: 51 2
reacted_atom_IDs: 13 6
reacted_atom_IDs: 57 25
reacted_atom_IDs: 29 37
reacted_atom_IDs: 51 2
reacted_atom_IDs: 13 6
reacted_atom_IDs: 57 25
21,21,21,21,
  - [1210000, 0.550407853867453, 6.37905506143679, 21, 21, 21, 21, ]
reacted_atom_IDs: 68 25
reacted_atom_IDs: 186 190
reacted_atom_IDs: 86 82
reacted_atom_IDs: 27 32
reacted_atom_IDs: 68 25
reacted_atom_IDs: 186 190
reacted_atom_IDs: 86 82
reacted_atom_IDs: 27 32
reacted_atom_IDs: 68 25
reacted_atom_IDs: 186 190
reacted_atom_IDs: 86 82
reacted_atom_IDs: 27 32
reacted_atom_IDs: 68 25
reacted_atom_IDs: 186 190
reacted_atom_IDs: 86 82
reacted_atom_IDs: 27 32
reacted_atom_IDs: 68 25
reacted_atom_IDs: 186 190
reacted_atom_IDs: 86 82
reacted_atom_IDs: 27 32
reacted_atom_IDs: 68 25
reacted_atom_IDs: 186 190
reacted_atom_IDs: 86 82
reacted_atom_IDs: 27 32
reacted_atom_IDs: 68 25
reacted_atom_IDs: 186 190
reacted_atom_IDs: 86 82
reacted_atom_IDs: 27 32
reacted_atom_IDs: 68 25
reacted_atom_IDs: 186 190
reacted_atom_IDs: 86 82
reacted_atom_IDs: 27 32
reacted_atom_IDs: 68 25
reacted_atom_IDs: 186 190
reacted_atom_IDs: 86 82
reacted_atom_IDs: 27 32
reacted_atom_IDs: 68 25
reacted_atom_IDs: 186 190
reacted_atom_IDs: 86 82
reacted_atom_IDs: 27 32
22,22,22,22,
  - [1220000, 0.563804961034321, 4.48499565925137, 22, 22, 22, 22, ]
reacted_atom_IDs: 41 32
reacted_atom_IDs: 58 53
reacted_atom_IDs: 14 21
reacted_atom_IDs: 105 110
reacted_atom_IDs: 41 32
reacted_atom_IDs: 58 53
reacted_atom_IDs: 14 21
reacted_atom_IDs: 105 110
reacted_atom_IDs: 41 32
reacted_atom_IDs: 58 53
reacted_atom_IDs: 14 21
reacted_atom_IDs: 105 110
reacted_atom_IDs: 41 32
reacted_atom_IDs: 58 53
reacted_atom_IDs: 14 21
reacted_atom_IDs: 105 110
reacted_atom_IDs: 41 32
reacted_atom_IDs: 58 53
reacted_atom_IDs: 14 21
reacted_atom_IDs: 105 110
reacted_atom_IDs: 41 32
reacted_atom_IDs: 58 53
reacted_atom_IDs: 14 21
reacted_atom_IDs: 105 110
reacted_atom_IDs: 41 32
reacted_atom_IDs: 58 53
reacted_atom_IDs: 14 21
reacted_atom_IDs: 105 110
reacted_atom_IDs: 41 32
reacted_atom_IDs: 58 53
reacted_atom_IDs: 14 21
reacted_atom_IDs: 105 110
reacted_atom_IDs: 41 32
reacted_atom_IDs: 58 53
reacted_atom_IDs: 14 21
reacted_atom_IDs: 105 110
reacted_atom_IDs: 41 32
reacted_atom_IDs: 58 53
reacted_atom_IDs: 14 21
reacted_atom_IDs: 105 110
23,23,23,23,
  - [1230000, 0.554548138675965, 3.34256033971157, 23, 23, 23, 23, ]
reacted_atom_IDs: 112 108
reacted_atom_IDs: 71 85
reacted_atom_IDs: 39 119
reacted_atom_IDs: 5 40
reacted_atom_IDs: 112 108
reacted_atom_IDs: 71 85
reacted_atom_IDs: 39 119
reacted_atom_IDs: 5 40
reacted_atom_IDs: 112 108
reacted_atom_IDs: 71 85
reacted_atom_IDs: 39 119
reacted_atom_IDs: 5 40
reacted_atom_IDs: 112 108
reacted_atom_IDs: 71 85
reacted_atom_IDs: 39 119
reacted_atom_IDs: 5 40
reacted_atom_IDs: 112 108
reacted_atom_IDs: 71 85
reacted_atom_IDs: 39 119
reacted_atom_IDs: 5 40
reacted_atom_IDs: 112 108
reacted_atom_IDs: 71 85
reacted_atom_IDs: 39 119
reacted_atom_IDs: 5 40
reacted_atom_IDs: 112 108
reacted_atom_IDs: 71 85
reacted_atom_IDs: 39 119
reacted_atom_IDs: 5 40
reacted_atom_IDs: 112 108
reacted_atom_IDs: 71 85
reacted_atom_IDs: 39 119
reacted_atom_IDs: 5 40
reacted_atom_IDs: 112 108
reacted_atom_IDs: 71 85
reacted_atom_IDs: 39 119
reacted_atom_IDs: 5 40
reacted_atom_IDs: 112 108
reacted_atom_IDs: 71 85
reacted_atom_IDs: 39 119
reacted_atom_IDs: 5 40
24,24,24,24,
  - [1240000, 0.536523853275922, 3.1967486980147, 24, 24, 24, 24, ]
reacted_atom_IDs: 15 20
reacted_atom_IDs: 161 173
reacted_atom_IDs: 5 39
reacted_atom_IDs: 195 113
reacted_atom_IDs: 15 20
reacted_atom_IDs: 161 173
reacted_atom_IDs: 5 39
reacted_atom_IDs: 195 113
reacted_atom_IDs: 15 20
reacted_atom_IDs: 161 173
reacted_atom_IDs: 5 39
reacted_atom_IDs: 195 113
reacted_atom_IDs: 15 20
reacted_atom_IDs: 161 173
reacted_atom_IDs: 5 39
reacted_atom_IDs: 195 113
reacted_atom_IDs: 15 20
reacted_atom_IDs: 161 173
reacted_atom_IDs: 5 39
reacted_atom_IDs: 195 113
reacted_atom_IDs: 15 20
reacted_atom_IDs: 161 173
reacted_atom_IDs: 5 39
reacted_atom_IDs: 195 113
reacted_atom_IDs: 15 20
reacted_atom_IDs: 161 173
reacted_atom_IDs: 5 39
reacted_atom_IDs: 195 113
reacted_atom_IDs: 15 20
reacted_atom_IDs: 161 173
reacted_atom_IDs: 5 39
reacted_atom_IDs: 195 113
reacted_atom_IDs: 15 20
reacted_atom_IDs: 161 173
reacted_atom_IDs: 5 39
reacted_atom_IDs: 195 113
reacted_atom_IDs: 15 20
reacted_atom_IDs: 161 173
reacted_atom_IDs: 5 39
reacted_atom_IDs: 195 113
25,25,25,25,
  - [1250000, 0.562336947127294, 3.10051707922401, 25, 25, 25, 25, ]
reacted_atom_IDs: 163 147
reacted_atom_IDs: 109 129
reacted_atom_IDs: 156 184
reacted_atom_IDs: 87 15
reacted_atom_IDs: 163 147
reacted_atom_IDs: 109 129
reacted_atom_IDs: 156 184
reacted_atom_IDs: 87 15
reacted_atom_IDs: 163 147
reacted_atom_IDs: 109 129
reacted_atom_IDs: 156 184
reacted_atom_IDs: 87 15
reacted_atom_IDs: 163 147
reacted_atom_IDs: 109 129
reacted_atom_IDs: 156 184
reacted_atom_IDs: 87 15
reacted_atom_IDs: 163 147
reacted_atom_IDs: 109 129
reacted_atom_IDs: 156 184
reacted_atom_IDs: 87 15
reacted_atom_IDs: 163 147
reacted_atom_IDs: 109 129
reacted_atom_IDs: 156 184
reacted_atom_IDs: 87 15
reacted_atom_IDs: 163 147
reacted_atom_IDs: 109 129
reacted_atom_IDs: 156 184
reacted_atom_IDs: 87 15
reacted_atom_IDs: 163 147
reacted_atom_IDs: 109 129
reacted_atom_IDs: 156 184
reacted_atom_IDs: 87 15
reacted_atom_IDs: 163 147
reacted_atom_IDs: 109 129
reacted_atom_IDs: 156 184
reacted_atom_IDs: 87 15
reacted_atom_IDs: 163 147
reacted_atom_IDs: 109 129
reacted_atom_IDs: 156 184
reacted_atom_IDs: 87 15
26,26,26,26,
  - [1260000, 0.562409001077708, 3.12043945532042, 26, 26, 26, 26, ]
reacted_atom_IDs: 142 154
reacted_atom_IDs: 143 158
reacted_atom_IDs: 182 145
reacted_atom_IDs: 50 27
reacted_atom_IDs: 142 154
reacted_atom_IDs: 143 158
reacted_atom_IDs: 182 145
reacted_atom_IDs: 50 27
reacted_atom_IDs: 142 154
reacted_atom_IDs: 143 158
reacted_atom_IDs: 182 145
reacted_atom_IDs: 50 27
reacted_atom_IDs: 142 154
reacted_atom_IDs: 143 158
reacted_atom_IDs: 182 145
reacted_atom_IDs: 50 27
reacted_atom_IDs: 142 154
reacted_atom_IDs: 143 158
reacted_atom_IDs: 182 145
reacted_atom_IDs: 50 27
reacted_atom_IDs: 142 154
reacted_atom_IDs: 143 158
reacted_atom_IDs: 182 145
reacted_atom_IDs: 50 27
reacted_atom_IDs: 142 154
reacted_atom_IDs: 143 158
reacted_atom_IDs: 182 145
reacted_atom_IDs: 50 27
reacted_atom_IDs: 142 154
reacted_atom_IDs: 143 158
reacted_atom_IDs: 182 145
reacted_atom_IDs: 50 27
reacted_atom_IDs: 142 154
reacted_atom_IDs: 143 158
reacted_atom_IDs: 182 145
reacted_atom_IDs: 50 27
reacted_atom_IDs: 142 154
reacted_atom_IDs: 143 158
reacted_atom_IDs: 182 145
reacted_atom_IDs: 50 27
27,27,27,27,
  - [1270000, 0.563167354279105, 3.08482616283525, 27, 27, 27, 27, ]
reacted_atom_IDs: 58 49
reacted_atom_IDs: 187 155
reacted_atom_IDs: 18 35
reacted_atom_IDs: 145 74
reacted_atom_IDs: 58 49
reacted_atom_IDs: 187 155
reacted_atom_IDs: 18 35
reacted_atom_IDs: 145 74
reacted_atom_IDs: 58 49
reacted_atom_IDs: 187 155
reacted_atom_IDs: 18 35
reacted_atom_IDs: 145 74
reacted_atom_IDs: 58 49
reacted_atom_IDs: 187 155
reacted_atom_IDs: 18 35
reacted_atom_IDs: 145 74
reacted_atom_IDs: 58 49
reacted_atom_IDs: 187 155
reacted_atom_IDs: 18 35
reacted_atom_IDs: 145 74
reacted_atom_IDs: 58 49
reacted_atom_IDs: 187 155
reacted_atom_IDs: 18 35
reacted_atom_IDs: 145 74
reacted_atom_IDs: 58 49
reacted_atom_IDs: 187 155
reacted_atom_IDs: 18 35
reacted_atom_IDs: 145 74
reacted_atom_IDs: 58 49
reacted_atom_IDs: 187 155
reacted_atom_IDs: 18 35
reacted_atom_IDs: 145 74
reacted_atom_IDs: 58 49
reacted_atom_IDs: 187 155
reacted_atom_IDs: 18 35
reacted_atom_IDs: 145 74
reacted_atom_IDs: 58 49
reacted_atom_IDs: 187 155
reacted_atom_IDs: 18 35
reacted_atom_IDs: 145 74
28,28,28,28,
  - [1280000, 0.586459461673406, 3.14255966843265, 28, 28, 28, 28, ]
reacted_atom_IDs: 29 47
reacted_atom_IDs: 131 108
reacted_atom_IDs: 111 103
reacted_atom_IDs: 134 130
reacted_atom_IDs: 29 47
reacted_atom_IDs: 131 108
reacted_atom_IDs: 111 103
reacted_atom_IDs: 134 130
reacted_atom_IDs: 29 47
reacted_atom_IDs: 131 108
reacted_atom_IDs: 111 103
reacted_atom_IDs: 134 130
reacted_atom_IDs: 29 47
reacted_atom_IDs: 131 108
reacted_atom_IDs: 111 103
reacted_atom_IDs: 134 130
reacted_atom_IDs: 29 47
reacted_atom_IDs: 131 108
reacted_atom_IDs: 111 103
reacted_atom_IDs: 134 130
reacted_atom_IDs: 29 47
reacted_atom_IDs: 131 108
reacted_atom_IDs: 111 103
reacted_atom_IDs: 134 130
reacted_atom_IDs: 29 47
reacted_atom_IDs: 131 108
reacted_atom_IDs: 111 103
reacted_atom_IDs: 134 130
reacted_atom_IDs: 29 47
reacted_atom_IDs: 131 108
reacted_atom_IDs: 111 103
reacted_atom_IDs: 134 130
reacted_atom_IDs: 29 47
reacted_atom_IDs: 131 108
reacted_atom_IDs: 111 103
reacted_atom_IDs: 134 130
reacted_atom_IDs: 29 47
reacted_atom_IDs: 131 108
reacted_atom_IDs: 111 103
reacted_atom_IDs: 134 130
29,29,29,29,
  - [1290000, 0.535920710454905, 3.10879855871944, 29, 29, 29, 29, ]
reacted_atom_IDs: 162 199
reacted_atom_IDs: 130 106
reacted_atom_IDs: 5 42
reacted_atom_IDs: 186 153
reacted_atom_IDs: 162 199
reacted_atom_IDs: 130 106
reacted_atom_IDs: 5 42
reacted_atom_IDs: 186 153
reacted_atom_IDs: 162 199
reacted_atom_IDs: 130 106
reacted_atom_IDs: 5 42
reacted_atom_IDs: 186 153
reacted_atom_IDs: 162 199
reacted_atom_IDs: 130 106
reacted_atom_IDs: 5 42
reacted_atom_IDs: 186 153
reacted_atom_IDs: 162 199
reacted_atom_IDs: 130 106
reacted_atom_IDs: 5 42
reacted_atom_IDs: 186 153
reacted_atom_IDs: 162 199
reacted_atom_IDs: 130 106
reacted_atom_IDs: 5 42
reacted_atom_IDs: 186 153
reacted_atom_IDs: 162 199
reacted_atom_IDs: 130 106
reacted_atom_IDs: 5 42
reacted_atom_IDs: 186 153
reacted_atom_IDs: 162 199
reacted_atom_IDs: 130 106
reacted_atom_IDs: 5 42
reacted_atom_IDs: 186 153
reacted_atom_IDs: 162 199
reacted_atom_IDs: 130 106
reacted_atom_IDs: 5 42
reacted_atom_IDs: 186 153
reacted_atom_IDs: 162 199
reacted_atom_IDs: 130 106
reacted_atom_IDs: 5 42
reacted_atom_IDs: 186 153
30,30,30,30,
  - [1300000, 0.565708764511688, 3.11512510023918, 30, 30, 30, 30, ]
reacted_atom_IDs: 16 121
reacted_atom_IDs: 30 18
reacted_atom_IDs: 29 50
reacted_atom_IDs: 167 171
reacted_atom_IDs: 16 121
reacted_atom_IDs: 30 18
reacted_atom_IDs: 29 50
reacted_atom_IDs: 167 171
reacted_atom_IDs: 16 121
reacted_atom_IDs: 30 18
reacted_atom_IDs: 29 50
reacted_atom_IDs: 167 171
reacted_atom_IDs: 16 121
reacted_atom_IDs: 30 18
reacted_atom_IDs: 29 50
reacted_atom_IDs: 167 171
reacted_atom_IDs: 16 121
reacted_atom_IDs: 30 18
reacted_atom_IDs: 29 50
reacted_atom_IDs: 167 171
reacted_atom_IDs: 16 121
reacted_atom_IDs: 30 18
reacted_atom_IDs: 29 50
reacted_atom_IDs: 167 171
reacted_atom_IDs: 16 121
reacted_atom_IDs: 30 18
reacted_atom_IDs: 29 50
reacted_atom_IDs: 167 171
reacted_atom_IDs: 16 121
reacted_atom_IDs: 30 18
reacted_atom_IDs: 29 50
reacted_atom_IDs: 167 171
reacted_atom_IDs: 16 121
reacted_atom_IDs: 30 18
reacted_atom_IDs: 29 50
reacted_atom_IDs: 167 171
reacted_atom_IDs: 16 121
reacted_atom_IDs: 30 18
reacted_atom_IDs: 29 50
reacted_atom_IDs: 167 171
31,31,31,31,
  - [1310000, 0.553908812061183, 3.13507720682771, 31, 31, 31, 31, ]
reacted_atom_IDs: 69 27
reacted_atom_IDs: 84 16
reacted_atom_IDs: 25 30
reacted_atom_IDs: 53 2
reacted_atom_IDs: 69 27
reacted_atom_IDs: 84 16
reacted_atom_IDs: 25 30
reacted_atom_IDs: 53 2
reacted_atom_IDs: 69 27
reacted_atom_IDs: 84 16
reacted_atom_IDs: 25 30
reacted_atom_IDs: 53 2
reacted_atom_IDs: 69 27
reacted_atom_IDs: 84 16
reacted_atom_IDs: 25 30
reacted_atom_IDs: 53 2
reacted_atom_IDs: 69 27
reacted_atom_IDs: 84 16
reacted_atom_IDs: 25 30
reacted_atom_IDs: 53 2
reacted_atom_IDs: 69 27
reacted_atom_IDs: 84 16
reacted_atom_IDs: 25 30
reacted_atom_IDs: 53 2
reacted_atom_IDs: 69 27
reacted_atom_IDs: 84 16
reacted_atom_IDs: 25 30
reacted_atom_IDs: 53 2
reacted_atom_IDs: 69 27
reacted_atom_IDs: 84 16
reacted_atom_IDs: 25 30
reacted_atom_IDs: 53 2
reacted_atom_IDs: 69 27
reacted_atom_IDs: 84 16
reacted_atom_IDs: 25 30
reacted_atom_IDs: 53 2
reacted_atom_IDs: 69 27
reacted_atom_IDs: 84 16
reacted_atom_IDs: 25 30
reacted_atom_IDs: 53 2
32,32,32,32,
  - [1320000, 0.523424704070947, 3.15067764697902, 32, 32, 32, 32, ]
reacted_atom_IDs: 139 166
reacted_atom_IDs: 99 81
reacted_atom_IDs: 148 159
reacted_atom_IDs: 114 184
reacted_atom_IDs: 139 166
reacted_atom_IDs: 99 81
reacted_atom_IDs: 148 159
reacted_atom_IDs: 114 184
reacted_atom_IDs: 139 166
reacted_atom_IDs: 99 81
reacted_atom_IDs: 148 159
reacted_atom_IDs: 114 184
reacted_atom_IDs: 139 166
reacted_atom_IDs: 99 81
reacted_atom_IDs: 148 159
reacted_atom_IDs: 114 184
reacted_atom_IDs: 139 166
reacted_atom_IDs: 99 81
reacted_atom_IDs: 148 159
reacted_atom_IDs: 114 184
reacted_atom_IDs: 139 166
reacted_atom_IDs: 99 81
reacted_atom_IDs: 148 159
reacted_atom_IDs: 114 184
reacted_atom_IDs: 139 166
reacted_atom_IDs: 99 81
reacted_atom_IDs: 148 159
reacted_atom_IDs: 114 184
reacted_atom_IDs: 139 166
reacted_atom_IDs: 99 81
reacted_atom_IDs: 148 159
reacted_atom_IDs: 114 184
reacted_atom_IDs: 139 166
reacted_atom_IDs: 99 81
reacted_atom_IDs: 148 159
reacted_atom_IDs: 114 184
reacted_atom_IDs: 139 166
reacted_atom_IDs: 99 81
reacted_atom_IDs: 148 159
reacted_atom_IDs: 114 184
33,33,33,33,
  - [1330000, 0.551083777477366, 3.13556842480653, 33, 33, 33, 33, ]
reacted_atom_IDs: 59 29
reacted_atom_IDs: 25 15
reacted_atom_IDs: 93 88
reacted_atom_IDs: 150 173
reacted_atom_IDs: 59 29
reacted_atom_IDs: 25 15
reacted_atom_IDs: 93 88
reacted_atom_IDs: 150 173
reacted_atom_IDs: 59 29
reacted_atom_IDs: 25 15
reacted_atom_IDs: 93 88
reacted_atom_IDs: 150 173
reacted_atom_IDs: 59 29
reacted_atom_IDs: 25 15
reacted_atom_IDs: 93 88
reacted_atom_IDs: 150 173
reacted_atom_IDs: 59 29
reacted_atom_IDs: 25 15
reacted_atom_IDs: 93 88
reacted_atom_IDs: 150 173
reacted_atom_IDs: 59 29
reacted_atom_IDs: 25 15
reacted_atom_IDs: 93 88
reacted_atom_IDs: 150 173
reacted_atom_IDs: 59 29
reacted_atom_IDs: 25 15
reacted_atom_IDs: 93 88
reacted_atom_IDs: 150 173
reacted_atom_IDs: 59 29
reacted_atom_IDs: 25 15
reacted_atom_IDs: 93 88
reacted_atom_IDs: 150 173
reacted_atom_IDs: 59 29
reacted_atom_IDs: 25 15
reacted_atom_IDs: 93 88
reacted_atom_IDs: 150 173
reacted_atom_IDs: 59 29
reacted_atom_IDs: 25 15
reacted_atom_IDs: 93 88
reacted_atom_IDs: 150 173
34,34,34,34,
  - [1340000, 0.565164317475241, 3.13149883149571, 34, 34, 34, 34, ]
reacted_atom_IDs: 93 72
reacted_atom_IDs: 112 196
reacted_atom_IDs: 85 101
reacted_atom_IDs: 97 70
reacted_atom_IDs: 93 72
reacted_atom_IDs: 112 196
reacted_atom_IDs: 85 101
reacted_atom_IDs: 97 70
reacted_atom_IDs: 93 72
reacted_atom_IDs: 112 196
reacted_atom_IDs: 85 101
reacted_atom_IDs: 97 70
reacted_atom_IDs: 93 72
reacted_atom_IDs: 112 196
reacted_atom_IDs: 85 101
reacted_atom_IDs: 97 70
reacted_atom_IDs: 93 72
reacted_atom_IDs: 112 196
reacted_atom_IDs: 85 101
reacted_atom_IDs: 97 70
reacted_atom_IDs: 93 72
reacted_atom_IDs: 112 196
reacted_atom_IDs: 85 101
reacted_atom_IDs: 97 70
reacted_atom_IDs: 93 72
reacted_atom_IDs: 112 196
reacted_atom_IDs: 85 101
reacted_atom_IDs: 97 70
reacted_atom_IDs: 93 72
reacted_atom_IDs: 112 196
reacted_atom_IDs: 85 101
reacted_atom_IDs: 97 70
reacted_atom_IDs: 93 72
reacted_atom_IDs: 112 196
reacted_atom_IDs: 85 101
reacted_atom_IDs: 97 70
reacted_atom_IDs: 93 72
reacted_atom_IDs: 112 196
reacted_atom_IDs: 85 101
reacted_atom_IDs: 97 70
35,35,35,35,
  - [1350000, 0.540787164077131, 3.10800383220615, 35, 35, 35, 35, ]
reacted_atom_IDs: 17 30
reacted_atom_IDs: 85 93
reacted_atom_IDs: 81 16
reacted_atom_IDs: 168 183
reacted_atom_IDs: 17 30
reacted_atom_IDs: 85 93
reacted_atom_IDs: 81 16
reacted_atom_IDs: 168 183
reacted_atom_IDs: 17 30
reacted_atom_IDs: 85 93
reacted_atom_IDs: 81 16
reacted_atom_IDs: 168 183
reacted_atom_IDs: 17 30
reacted_atom_IDs: 85 93
reacted_atom_IDs: 81 16
reacted_atom_IDs: 168 183
reacted_atom_IDs: 17 30
reacted_atom_IDs: 85 93
reacted_atom_IDs: 81 16
reacted_atom_IDs: 168 183
reacted_atom_IDs: 17 30
reacted_atom_IDs: 85 93
reacted_atom_IDs: 81 16
reacted_atom_IDs: 168 183
reacted_atom_IDs: 17 30
reacted_atom_IDs: 85 93
reacted_atom_IDs: 81 16
reacted_atom_IDs: 168 183
reacted_atom_IDs: 17 30
reacted_atom_IDs: 85 93
reacted_atom_IDs: 81 16
reacted_atom_IDs: 168 183
reacted_atom_IDs: 17 30
reacted_atom_IDs: 85 93
reacted_atom_IDs: 81 16
reacted_atom_IDs: 168 183
reacted_atom_IDs: 17 30
reacted_atom_IDs: 85 93
reacted_atom_IDs: 81 16
reacted_atom_IDs: 168 183
36,36,36,36,
  - [1360000, 0.610310356842712, 3.14008763406795, 36, 36, 36, 36, ]
reacted_atom_IDs: 41 33
reacted_atom_IDs: 58 25
reacted_atom_IDs: 73 78
reacted_atom_IDs: 1 31
reacted_atom_IDs: 41 33
reacted_atom_IDs: 58 25
reacted_atom_IDs: 73 78
reacted_atom_IDs: 1 31
reacted_atom_IDs: 41 33
reacted_atom_IDs: 58 25
reacted_atom_IDs: 73 78
reacted_atom_IDs: 1 31
reacted_atom_IDs: 41 33
reacted_atom_IDs: 58 25
reacted_atom_IDs: 73 78
reacted_atom_IDs: 1 31
reacted_atom_IDs: 41 33
reacted_atom_IDs: 58 25
reacted_atom_IDs: 73 78
reacted_atom_IDs: 1 31
reacted_atom_IDs: 41 33
reacted_atom_IDs: 58 25
reacted_atom_IDs: 73 78
reacted_atom_IDs: 1 31
reacted_atom_IDs: 41 33
reacted_atom_IDs: 58 25
reacted_atom_IDs: 73 78
reacted_atom_IDs: 1 31
reacted_atom_IDs: 41 33
reacted_atom_IDs: 58 25
reacted_atom_IDs: 73 78
reacted_atom_IDs: 1 31
reacted_atom_IDs: 41 33
reacted_atom_IDs: 58 25
reacted_atom_IDs: 73 78
reacted_atom_IDs: 1 31
reacted_atom_IDs: 41 33
reacted_atom_IDs: 58 25
reacted_atom_IDs: 73 78
reacted_atom_IDs: 1 31
37,37,37,37,
  - [1370000, 0.520025407388907, 3.14318510515069, 37, 37, 37, 37, ]
reacted_atom_IDs: 107 62
reacted_atom_IDs: 76 87
reacted_atom_IDs: 9 122
reacted_atom_IDs: 108 132
reacted_atom_IDs: 107 62
reacted_atom_IDs: 76 87
reacted_atom_IDs: 9 122
reacted_atom_IDs: 108 132
reacted_atom_IDs: 107 62
reacted_atom_IDs: 76 87
reacted_atom_IDs: 9 122
reacted_atom_IDs: 108 132
reacted_atom_IDs: 107 62
reacted_atom_IDs: 76 87
reacted_atom_IDs: 9 122
reacted_atom_IDs: 108 132
reacted_atom_IDs: 107 62
reacted_atom_IDs: 76 87
reacted_atom_IDs: 9 122
reacted_atom_IDs: 108 132
reacted_atom_IDs: 107 62
reacted_atom_IDs: 76 87
reacted_atom_IDs: 9 122
reacted_atom_IDs: 108 132
reacted_atom_IDs: 107 62
reacted_atom_IDs: 76 87
reacted_atom_IDs: 9 122
reacted_atom_IDs: 108 132
reacted_atom_IDs: 107 62
reacted_atom_IDs: 76 87
reacted_atom_IDs: 9 122
reacted_atom_IDs: 108 132
reacted_atom_IDs: 107 62
reacted_atom_IDs: 76 87
reacted_atom_IDs: 9 122
reacted_atom_IDs: 108 132
reacted_atom_IDs: 107 62
reacted_atom_IDs: 76 87
reacted_atom_IDs: 9 122
reacted_atom_IDs: 108 132
38,38,38,38,
  - [1380000, 0.545323702027163, 3.12489185301269, 38, 38, 38, 38, ]
reacted_atom_IDs: 125 120
reacted_atom_IDs: 8 129
reacted_atom_IDs: 114 182
reacted_atom_IDs: 97 102
reacted_atom_IDs: 125 120
reacted_atom_IDs: 8 129
reacted_atom_IDs: 114 182
reacted_atom_IDs: 97 102
reacted_atom_IDs: 125 120
reacted_atom_IDs: 8 129
reacted_atom_IDs: 114 182
reacted_atom_IDs: 97 102
reacted_atom_IDs: 125 120
reacted_atom_IDs: 8 129
reacted_atom_IDs: 114 182
reacted_atom_IDs: 97 102
reacted_atom_IDs: 125 120
reacted_atom_IDs: 8 129
reacted_atom_IDs: 114 182
reacted_atom_IDs: 97 102
reacted_atom_IDs: 125 120
reacted_atom_IDs: 8 129
reacted_atom_IDs: 114 182
reacted_atom_IDs: 97 102
reacted_atom_IDs: 125 120
reacted_atom_IDs: 8 129
reacted_atom_IDs: 114 182
reacted_atom_IDs: 97 102
reacted_atom_IDs: 125 120
reacted_atom_IDs: 8 129
reacted_atom_IDs: 114 182
reacted_atom_IDs: 97 102
reacted_atom_IDs: 125 120
reacted_atom_IDs: 8 129
reacted_atom_IDs: 114 182
reacted_atom_IDs: 97 102
reacted_atom_IDs: 125 120
reacted_atom_IDs: 8 129
reacted_atom_IDs: 114 182
reacted_atom_IDs: 97 102
39,39,39,39,
  - [1390000, 0.56295697976418, 3.13292445670283, 39, 39, 39, 39, ]
reacted_atom_IDs: 14 48
reacted_atom_IDs: 96 35
reacted_atom_IDs: 166 174
reacted_atom_IDs: 107 63
reacted_atom_IDs: 14 48
reacted_atom_IDs: 96 35
reacted_atom_IDs: 166 174
reacted_atom_IDs: 107 63
reacted_atom_IDs: 14 48
reacted_atom_IDs: 96 35
reacted_atom_IDs: 166 174
reacted_atom_IDs: 107 63
reacted_atom_IDs: 14 48
reacted_atom_IDs: 96 35
reacted_atom_IDs: 166 174
reacted_atom_IDs: 107 63
reacted_atom_IDs: 14 48
reacted_atom_IDs: 96 35
reacted_atom_IDs: 166 174
reacted_atom_IDs: 107 63
reacted_atom_IDs: 14 48
reacted_atom_IDs: 96 35
reacted_atom_IDs: 166 174
reacted_atom_IDs: 107 63
reacted_atom_IDs: 14 48
reacted_atom_IDs: 96 35
reacted_atom_IDs: 166 174
reacted_atom_IDs: 107 63
reacted_atom_IDs: 14 48
reacted_atom_IDs: 96 35
reacted_atom_IDs: 166 174
reacted_atom_IDs: 107 63
reacted_atom_IDs: 14 48
reacted_atom_IDs: 96 35
reacted_atom_IDs: 166 174
reacted_atom_IDs: 107 63
reacted_atom_IDs: 14 48
reacted_atom_IDs: 96 35
reacted_atom_IDs: 166 174
reacted_atom_IDs: 107 63
40,40,40,40,
  - [1400000, 0.544493743829486, 3.16125337128277, 40, 40, 40, 40, ]
reacted_atom_IDs: 187 161
reacted_atom_IDs: 111 104
reacted_atom_IDs: 123 7
reacted_atom_IDs: 144 117
reacted_atom_IDs: 187 161
reacted_atom_IDs: 111 104
reacted_atom_IDs: 123 7
reacted_atom_IDs: 144 117
reacted_atom_IDs: 187 161
reacted_atom_IDs: 111 104
reacted_atom_IDs: 123 7
reacted_atom_IDs: 144 117
reacted_atom_IDs: 187 161
reacted_atom_IDs: 111 104
reacted_atom_IDs: 123 7
reacted_atom_IDs: 144 117
reacted_atom_IDs: 187 161
reacted_atom_IDs: 111 104
reacted_atom_IDs: 123 7
reacted_atom_IDs: 144 117
reacted_atom_IDs: 187 161
reacted_atom_IDs: 111 104
reacted_atom_IDs: 123 7
reacted_atom_IDs: 144 117
reacted_atom_IDs: 187 161
reacted_atom_IDs: 111 104
reacted_atom_IDs: 123 7
reacted_atom_IDs: 144 117
reacted_atom_IDs: 187 161
reacted_atom_IDs: 111 104
reacted_atom_IDs: 123 7
reacted_atom_IDs: 144 117
reacted_atom_IDs: 187 161
reacted_atom_IDs: 111 104
reacted_atom_IDs: 123 7
reacted_atom_IDs: 144 117
reacted_atom_IDs: 187 161
reacted_atom_IDs: 111 104
reacted_atom_IDs: 123 7
reacted_atom_IDs: 144 117
41,41,41,41,
  - [1410000, 0.571056866372475, 3.18974204796671, 41, 41, 41, 41, ]
reacted_atom_IDs: 92 116
reacted_atom_IDs: 38 46
reacted_atom_IDs: 37 101
reacted_atom_IDs: 52 60
reacted_atom_IDs: 92 116
reacted_atom_IDs: 38 46
reacted_atom_IDs: 37 101
reacted_atom_IDs: 52 60
reacted_atom_IDs: 92 116
reacted_atom_IDs: 38 46
reacted_atom_IDs: 37 101
reacted_atom_IDs: 52 60
reacted_atom_IDs: 92 116
reacted_atom_IDs: 38 46
reacted_atom_IDs: 37 101
reacted_atom_IDs: 52 60
reacted_atom_IDs: 92 116
reacted_atom_IDs: 38 46
reacted_atom_IDs: 37 101
reacted_atom_IDs: 52 60
reacted_atom_IDs: 92 116
reacted_atom_IDs: 38 46
reacted_atom_IDs: 37 101
reacted_atom_IDs: 52 60
reacted_atom_IDs: 92 116
reacted_atom_IDs: 38 46
reacted_atom_IDs: 37 101
reacted_atom_IDs: 52 60
reacted_atom_IDs: 92 116
reacted_atom_IDs: 38 46
reacted_atom_IDs: 37 101
reacted_atom_IDs: 52 60
reacted_atom_IDs: 92 116
reacted_atom_IDs: 38 46
reacted_atom_IDs: 37 101
reacted_atom_IDs: 52 60
reacted_atom_IDs: 92 116
reacted_atom_IDs: 38 46
reacted_atom_IDs: 37 101
reacted_atom_IDs: 52 60
42,42,42,42,
  - [1420000, 0.543369450868617, 3.10833441522233, 42, 42, 42, 42, ]
reacted_atom_IDs: 200 163
reacted_atom_IDs: 143 155
reacted_atom_IDs: 130 63
reacted_atom_IDs: 58 54
reacted_atom_IDs: 200 163
reacted_atom_IDs: 143 155
reacted_atom_IDs: 130 63
reacted_atom_IDs: 58 54
reacted_atom_IDs: 200 163
reacted_atom_IDs: 143 155
reacted_atom_IDs: 130 63
reacted_atom_IDs: 58 54
reacted_atom_IDs: 200 163
reacted_atom_IDs: 143 155
reacted_atom_IDs: 130 63
reacted_atom_IDs: 58 54
reacted_atom_IDs: 200 163
reacted_atom_IDs: 143 155
reacted_atom_IDs: 130 63
reacted_atom_IDs: 58 54
reacted_atom_IDs: 200 163
reacted_atom_IDs: 143 155
reacted_atom_IDs: 130 63
reacted_atom_IDs: 58 54
reacted_atom_IDs: 200 163
reacted_atom_IDs: 143 155
reacted_atom_IDs: 130 63
reacted_atom_IDs: 58 54
reacted_atom_IDs: 200 163
reacted_atom_IDs: 143 155
reacted_atom_IDs: 130 63
reacted_atom_IDs: 58 54
reacted_atom_IDs: 200 163
reacted_atom_IDs: 143 155
reacted_atom_IDs: 130 63
reacted_atom_IDs: 58 54
reacted_atom_IDs: 200 163
reacted_atom_IDs: 143 155
reacted_atom_IDs: 130 63
reacted_atom_IDs: 58 54
43,43,43,43,
  - [1430000, 0.543148701686069, 3.10391282740968, 43, 43, 43, 43, ]
reacted_atom_IDs: 134 105
reacted_atom_IDs: 145 169
reacted_atom_IDs: 109 138
reacted_atom_IDs: 188 180
reacted_atom_IDs: 134 105
reacted_atom_IDs: 145 169
reacted_atom_IDs: 109 138
reacted_atom_IDs: 188 180
reacted_atom_IDs: 134 105
reacted_atom_IDs: 145 169
reacted_atom_IDs: 109 138
reacted_atom_IDs: 188 180
reacted_atom_IDs: 134 105
reacted_atom_IDs: 145 169
reacted_atom_IDs: 109 138
reacted_atom_IDs: 188 180
reacted_atom_IDs: 134 105
reacted_atom_IDs: 145 169
reacted_atom_IDs: 109 138
reacted_atom_IDs: 188 180
reacted_atom_IDs: 134 105
reacted_atom_IDs: 145 169
reacted_atom_IDs: 109 138
reacted_atom_IDs: 188 180
reacted_atom_IDs: 134 105
reacted_atom_IDs: 145 169
reacted_atom_IDs: 109 138
reacted_atom_IDs: 188 180
reacted_atom_IDs: 134 105
reacted_atom_IDs: 145 169
reacted_atom_IDs: 109 138
reacted_atom_IDs: 188 180
reacted_atom_IDs: 134 105
reacted_atom_IDs: 145 169
reacted_atom_IDs: 109 138
reacted_atom_IDs: 188 180
reacted_atom_IDs: 134 105
reacted_atom_IDs: 145 169
reacted_atom_IDs: 109 138
reacted_atom_IDs: 188 180
44,44,44,44,
  - [1440000, 0.543236593125836, 3.0750785562521, 44, 44, 44, 44, ]
reacted_atom_IDs: 17 13
reacted_atom_IDs: 107 134
reacted_atom_IDs: 32 36
reacted_atom_IDs: 150 89
reacted_atom_IDs: 17 13
reacted_atom_IDs: 107 134
reacted_atom_IDs: 32 36
reacted_atom_IDs: 150 89
reacted_atom_IDs: 17 13
reacted_atom_IDs: 107 134
reacted_atom_IDs: 32 36
reacted_atom_IDs: 150 89
reacted_atom_IDs: 17 13
reacted_atom_IDs: 107 134
reacted_atom_IDs: 32 36
reacted_atom_IDs: 150 89
reacted_atom_IDs: 17 13
reacted_atom_IDs: 107 134
reacted_atom_IDs: 32 36
reacted_atom_IDs: 150 89
reacted_atom_IDs: 17 13
reacted_atom_IDs: 107 134
reacted_atom_IDs: 32 36
reacted_atom_IDs: 150 89
reacted_atom_IDs: 17 13
reacted_atom_IDs: 107 134
reacted_atom_IDs: 32 36
reacted_atom_IDs: 150 89
reacted_atom_IDs: 17 13
reacted_atom_IDs: 107 134
reacted_atom_IDs: 32 36
reacted_atom_IDs: 150 89
reacted_atom_IDs: 17 13
reacted_atom_IDs: 107 134
reacted_atom_IDs: 32 36
reacted_atom_IDs: 150 89
reacted_atom_IDs: 17 13
reacted_atom_IDs: 107 134
reacted_atom_IDs: 32 36
reacted_atom_IDs: 150 89
45,45,45,45,
  - [1450000, 0.595774834566142, 2.97216535683833, 45, 45, 45, 45, ]
reacted_atom_IDs: 104 67
reacted_atom_IDs: 107 68
reacted_atom_IDs: 11 56
reacted_atom_IDs: 155 160
reacted_atom_IDs: 104 67
reacted_atom_IDs: 107 68
reacted_atom_IDs: 11 56
reacted_atom_IDs: 155 160
reacted_atom_IDs: 104 67
reacted_atom_IDs: 107 68
reacted_atom_IDs: 11 56
reacted_atom_IDs: 155 160
reacted_atom_IDs: 104 67
reacted_atom_IDs: 107 68
reacted_atom_IDs: 11 56
reacted_atom_IDs: 155 160
reacted_atom_IDs: 104 67
reacted_atom_IDs: 107 68
reacted_atom_IDs: 11 56
reacted_atom_IDs: 155 160
reacted_atom_IDs: 104 67
reacted_atom_IDs: 107 68
reacted_atom_IDs: 11 56
reacted_atom_IDs: 155 160
reacted_atom_IDs: 104 67
reacted_atom_IDs: 107 68
reacted_atom_IDs: 11 56
reacted_atom_IDs: 155 160
reacted_atom_IDs: 104 67
reacted_atom_IDs: 107 68
reacted_atom_IDs: 11 56
reacted_atom_IDs: 155 160
reacted_atom_IDs: 104 67
reacted_atom_IDs: 107 68
reacted_atom_IDs: 11 56
reacted_atom_IDs: 155 160
reacted_atom_IDs: 104 67
reacted_atom_IDs: 107 68
reacted_atom_IDs: 11 56
reacted_atom_IDs: 155 160
46,46,46,46,
  - [1460000, 0.537127241141323, 2.98108204563066, 46, 46, 46, 46, ]
reacted_atom_IDs: 133 110
reacted_atom_IDs: 121 62
reacted_atom_IDs: 108 112
reacted_atom_IDs: 142 156
reacted_atom_IDs: 133 110
reacted_atom_IDs: 121 62
reacted_atom_IDs: 108 112
reacted_atom_IDs: 142 156
reacted_atom_IDs: 133 110
reacted_atom_IDs: 121 62
reacted_atom_IDs: 108 112
reacted_atom_IDs: 142 156
reacted_atom_IDs: 133 110
reacted_atom_IDs: 121 62
reacted_atom_IDs: 108 112
reacted_atom_IDs: 142 156
reacted_atom_IDs: 133 110
reacted_atom_IDs: 121 62
reacted_atom_IDs: 108 112
reacted_atom_IDs: 142 156
reacted_atom_IDs: 133 110
reacted_atom_IDs: 121 62
reacted_atom_IDs: 108 112
reacted_atom_IDs: 142 156
reacted_atom_IDs: 133 110
reacted_atom_IDs: 121 62
reacted_atom_IDs: 108 112
reacted_atom_IDs: 142 156
reacted_atom_IDs: 133 110
reacted_atom_IDs: 121 62
reacted_atom_IDs: 108 112
reacted_atom_IDs: 142 156
reacted_atom_IDs: 133 110
reacted_atom_IDs: 121 62
reacted_atom_IDs: 108 112
reacted_atom_IDs: 142 156
reacted_atom_IDs: 133 110
reacted_atom_IDs: 121 62
reacted_atom_IDs: 108 112
reacted_atom_IDs: 142 156
47,47,47,47,
  - [1470000, 0.560853910942127, 3.06958907558927, 47, 47, 47, 47, ]
reacted_atom_IDs: 12 57
reacted_atom_IDs: 66 132
reacted_atom_IDs: 164 160
reacted_atom_IDs: 69 105
reacted_atom_IDs: 12 57
reacted_atom_IDs: 66 132
reacted_atom_IDs: 164 160
reacted_atom_IDs: 69 105
reacted_atom_IDs: 12 57
reacted_atom_IDs: 66 132
reacted_atom_IDs: 164 160
reacted_atom_IDs: 69 105
reacted_atom_IDs: 12 57
reacted_atom_IDs: 66 132
reacted_atom_IDs: 164 160
reacted_atom_IDs: 69 105
reacted_atom_IDs: 12 57
reacted_atom_IDs: 66 132
reacted_atom_IDs: 164 160
reacted_atom_IDs: 69 105
reacted_atom_IDs: 12 57
reacted_atom_IDs: 66 132
reacted_atom_IDs: 164 160
reacted_atom_IDs: 69 105
reacted_atom_IDs: 12 57
reacted_atom_IDs: 66 132
reacted_atom_IDs: 164 160
reacted_atom_IDs: 69 105
reacted_atom_IDs: 12 57
reacted_atom_IDs: 66 132
reacted_atom_IDs: 164 160
reacted_atom_IDs: 69 105
reacted_atom_IDs: 12 57
reacted_atom_IDs: 66 132
reacted_atom_IDs: 164 160
reacted_atom_IDs: 69 105
reacted_atom_IDs: 12 57
reacted_atom_IDs: 66 132
reacted_atom_IDs: 164 160
reacted_atom_IDs: 69 105
48,48,48,48,
  - [1480000, 0.56275818710599, 2.9910429112212, 48, 48, 48, 48, ]
reacted_atom_IDs: 75 96
reacted_atom_IDs: 125 120
reacted_atom_IDs: 76 95
reacted_atom_IDs: 150 154
reacted_atom_IDs: 75 96
reacted_atom_IDs: 125 120
reacted_atom_IDs: 76 95
reacted_atom_IDs: 150 154
reacted_atom_IDs: 75 96
reacted_atom_IDs: 125 120
reacted_atom_IDs: 76 95
reacted_atom_IDs: 150 154
reacted_atom_IDs: 75 96
reacted_atom_IDs: 125 120
reacted_atom_IDs: 76 95
reacted_atom_IDs: 150 154
reacted_atom_IDs: 75 96
reacted_atom_IDs: 125 120
reacted_atom_IDs: 76 95
reacted_atom_IDs: 150 154
reacted_atom_IDs: 75 96
reacted_atom_IDs: 125 120
reacted_atom_IDs: 76 95
reacted_atom_IDs: 150 154
reacted_atom_IDs: 75 96
reacted_atom_IDs: 125 120
reacted_atom_IDs: 76 95
reacted_atom_IDs: 150 154
reacted_atom_IDs: 75 96
reacted_atom_IDs: 125 120
reacted_atom_IDs: 76 95
reacted_atom_IDs: 150 154
reacted_atom_IDs: 75 96
reacted_atom_IDs: 125 120
reacted_atom_IDs: 76 95
reacted_atom_IDs: 150 154
reacted_atom_IDs: 75 96
reacted_atom_IDs: 125 120
reacted_atom_IDs: 76 95
reacted_atom_IDs: 150 154
49,49,49,49,
  - [1490000, 0.542436863403919, 3.03047429643641, 49, 49, 49, 49, ]
reacted_atom_IDs: 168 172
reacted_atom_IDs: 53 57
reacted_atom_IDs: 22 93
reacted_atom_IDs: 149 114
reacted_atom_IDs: 168 172
reacted_atom_IDs: 53 57
reacted_atom_IDs: 22 93
reacted_atom_IDs: 149 114
reacted_atom_IDs: 168 172
reacted_atom_IDs: 53 57
reacted_atom_IDs: 22 93
reacted_atom_IDs: 149 114
reacted_atom_IDs: 168 172
reacted_atom_IDs: 53 57
reacted_atom_IDs: 22 93
reacted_atom_IDs: 149 114
reacted_atom_IDs: 168 172
reacted_atom_IDs: 53 57
reacted_atom_IDs: 22 93
reacted_atom_IDs: 149 114
reacted_atom_IDs: 168 172
reacted_atom_IDs: 53 57
reacted_atom_IDs: 22 93
reacted_atom_IDs: 149 114
reacted_atom_IDs: 168 172
reacted_atom_IDs: 53 57
reacted_atom_IDs: 22 93
reacted_atom_IDs: 149 114
reacted_atom_IDs: 168 172
reacted_atom_IDs: 53 57
reacted_atom_IDs: 22 93
reacted_atom_IDs: 149 114
reacted_atom_IDs: 168 172
reacted_atom_IDs: 53 57
reacted_atom_IDs: 22 93
reacted_atom_IDs: 149 114
reacted_atom_IDs: 168 172
reacted_atom_IDs: 53 57
reacted_atom_IDs: 22 93
reacted_atom_IDs: 149 114
50,50,50,50,
  - [1500000, 0.53107809321501, 3.02142855484834, 50, 50, 50, 50, ]
reacted_atom_IDs: 1 91
reacted_atom_IDs: 118 42
reacted_atom_IDs: 40 44
reacted_atom_IDs: 22 57
reacted_atom_IDs: 1 91
reacted_atom_IDs: 118 42
reacted_atom_IDs: 40 44
reacted_atom_IDs: 22 57
reacted_atom_IDs: 1 91
reacted_atom_IDs: 118 42
reacted_atom_IDs: 40 44
reacted_atom_IDs: 22 57
reacted_atom_IDs: 1 91
reacted_atom_IDs: 118 42
reacted_atom_IDs: 40 44
reacted_atom_IDs: 22 57
reacted_atom_IDs: 1 91
reacted_atom_IDs: 118 42
reacted_atom_IDs: 40 44
reacted_atom_IDs: 22 57
reacted_atom_IDs: 1 91
reacted_atom_IDs: 118 42
reacted_atom_IDs: 40 44
reacted_atom_IDs: 22 57
reacted_atom_IDs: 1 91
reacted_atom_IDs: 118 42
reacted_atom_IDs: 40 44
reacted_atom_IDs: 22 57
reacted_atom_IDs: 1 91
reacted_atom_IDs: 118 42
reacted_atom_IDs: 40 44
reacted_atom_IDs: 22 57
reacted_atom_IDs: 1 91
reacted_atom_IDs: 118 42
reacted_atom_IDs: 40 44
reacted_atom_IDs: 22 57
reacted_atom_IDs: 1 91
reacted_atom_IDs: 118 42
reacted_atom_IDs: 40 44
reacted_atom_IDs: 22 57
51,51,51,51,
  - [1510000, 0.561649588127605, 3.03265466327281, 51, 51, 51, 51, ]
reacted_atom_IDs: 139 156
reacted_atom_IDs: 91 87
reacted_atom_IDs: 198 179
reacted_atom_IDs: 11 2
reacted_atom_IDs: 139 156
reacted_atom_IDs: 91 87
reacted_atom_IDs: 198 179
reacted_atom_IDs: 11 2
reacted_atom_IDs: 139 156
reacted_atom_IDs: 91 87
reacted_atom_IDs: 198 179
reacted_atom_IDs: 11 2
reacted_atom_IDs: 139 156
reacted_atom_IDs: 91 87
reacted_atom_IDs: 198 179
reacted_atom_IDs: 11 2
reacted_atom_IDs: 139 156
reacted_atom_IDs: 91 87
reacted_atom_IDs: 198 179
reacted_atom_IDs: 11 2
reacted_atom_IDs: 139 156
reacted_atom_IDs: 91 87
reacted_atom_IDs: 198 179
reacted_atom_IDs: 11 2
reacted_atom_IDs: 139 156
reacted_atom_IDs: 91 87
reacted_atom_IDs: 198 179
reacted_atom_IDs: 11 2
reacted_atom_IDs: 139 156
reacted_atom_IDs: 91 87
reacted_atom_IDs: 198 179
reacted_atom_IDs: 11 2
reacted_atom_IDs: 139 156
reacted_atom_IDs: 91 87
reacted_atom_IDs: 198 179
reacted_atom_IDs: 11 2
reacted_atom_IDs: 139 156
reacted_atom_IDs: 91 87
reacted_atom_IDs: 198 179
reacted_atom_IDs: 11 2
52,52,52,52,
  - [1520000, 0.560812198259902, 2.99121508957129, 52, 52, 52, 52, ]
reacted_atom_IDs: 89 33
reacted_atom_IDs: 73 80
reacted_atom_IDs: 65 128
reacted_atom_IDs: 180 199
reacted_atom_IDs: 89 33
reacted_atom_IDs: 73 80
reacted_atom_IDs: 65 128
reacted_atom_IDs: 180 199
reacted_atom_IDs: 89 33
reacted_atom_IDs: 73 80
reacted_atom_IDs: 65 128
reacted_atom_IDs: 180 199
reacted_atom_IDs: 89 33
reacted_atom_IDs: 73 80
reacted_atom_IDs: 65 128
reacted_atom_IDs: 180 199
reacted_atom_IDs: 89 33
reacted_atom_IDs: 73 80
reacted_atom_IDs: 65 128
reacted_atom_IDs: 180 199
reacted_atom_IDs: 89 33
reacted_atom_IDs: 73 80
reacted_atom_IDs: 65 128
reacted_atom_IDs: 180 199
reacted_atom_IDs: 89 33
reacted_atom_IDs: 73 80
reacted_atom_IDs: 65 128
reacted_atom_IDs: 180 199
reacted_atom_IDs: 89 33
reacted_atom_IDs: 73 80
reacted_atom_IDs: 65 128
reacted_atom_IDs: 180 199
reacted_atom_IDs: 89 33
reacted_atom_IDs: 73 80
reacted_atom_IDs: 65 128
reacted_atom_IDs: 180 199
reacted_atom_IDs: 89 33
reacted_atom_IDs: 73 80
reacted_atom_IDs: 65 128
reacted_atom_IDs: 180 199
53,53,53,53,
  - [1530000, 0.539665018634526, 3.01303541338758, 53, 53, 53, 53, ]
reacted_atom_IDs: 168 149
reacted_atom_IDs: 174 182
reacted_atom_IDs: 125 121
reacted_atom_IDs: 67 103
reacted_atom_IDs: 168 149
reacted_atom_IDs: 174 182
reacted_atom_IDs: 125 121
reacted_atom_IDs: 67 103
reacted_atom_IDs: 168 149
reacted_atom_IDs: 174 182
reacted_atom_IDs: 125 121
reacted_atom_IDs: 67 103
reacted_atom_IDs: 168 149
reacted_atom_IDs: 174 182
reacted_atom_IDs: 125 121
reacted_atom_IDs: 67 103
reacted_atom_IDs: 168 149
reacted_atom_IDs: 174 182
reacted_atom_IDs: 125 121
reacted_atom_IDs: 67 103
reacted_atom_IDs: 168 149
reacted_atom_IDs: 174 182
reacted_atom_IDs: 125 121
reacted_atom_IDs: 67 103
reacted_atom_IDs: 168 149
reacted_atom_IDs: 174 182
reacted_atom_IDs: 125 121
reacted_atom_IDs: 67 103
reacted_atom_IDs: 168 149
reacted_atom_IDs: 174 182
reacted_atom_IDs: 125 121
reacted_atom_IDs: 67 103
reacted_atom_IDs: 168 149
reacted_atom_IDs: 174 182
reacted_atom_IDs: 125 121
reacted_atom_IDs: 67 103
reacted_atom_IDs: 168 149
reacted_atom_IDs: 174 182
reacted_atom_IDs: 125 121
reacted_atom_IDs: 67 103
54,54,54,54,
  - [1540000, 0.547342856390613, 2.98882900715637, 54, 54, 54, 54, ]
reacted_atom_IDs: 93 26
reacted_atom_IDs: 107 132
reacted_atom_IDs: 111 61
reacted_atom_IDs: 130 134
reacted_atom_IDs: 93 26
reacted_atom_IDs: 107 132
reacted_atom_IDs: 111 61
reacted_atom_IDs: 130 134
reacted_atom_IDs: 93 26
reacted_atom_IDs: 107 132
reacted_atom_IDs: 111 61
reacted_atom_IDs: 130 134
reacted_atom_IDs: 93 26
reacted_atom_IDs: 107 132
reacted_atom_IDs: 111 61
reacted_atom_IDs: 130 134
reacted_atom_IDs: 93 26
reacted_atom_IDs: 107 132
reacted_atom_IDs: 111 61
reacted_atom_IDs: 130 134
reacted_atom_IDs: 93 26
reacted_atom_IDs: 107 132
reacted_atom_IDs: 111 61
reacted_atom_IDs: 130 134
reacted_atom_IDs: 93 26
reacted_atom_IDs: 107 132
reacted_atom_IDs: 111 61
reacted_atom_IDs: 130 134
reacted_atom_IDs: 93 26
reacted_atom_IDs: 107 132
reacted_atom_IDs: 111 61
reacted_atom_IDs: 130 134
reacted_atom_IDs: 93 26
reacted_atom_IDs: 107 132
reacted_atom_IDs: 111 61
reacted_atom_IDs: 130 134
reacted_atom_IDs: 93 26
reacted_atom_IDs: 107 132
reacted_atom_IDs: 111 61
reacted_atom_IDs: 130 134
55,55,55,55,
  - [1550000, 0.568791821638768, 2.93745653602847, 55, 55, 55, 55, ]
reacted_atom_IDs: 187 181
reacted_atom_IDs: 148 166
reacted_atom_IDs: 117 136
reacted_atom_IDs: 67 13
reacted_atom_IDs: 187 181
reacted_atom_IDs: 148 166
reacted_atom_IDs: 117 136
reacted_atom_IDs: 67 13
reacted_atom_IDs: 187 181
reacted_atom_IDs: 148 166
reacted_atom_IDs: 117 136
reacted_atom_IDs: 67 13
reacted_atom_IDs: 187 181
reacted_atom_IDs: 148 166
reacted_atom_IDs: 117 136
reacted_atom_IDs: 67 13
reacted_atom_IDs: 187 181
reacted_atom_IDs: 148 166
reacted_atom_IDs: 117 136
reacted_atom_IDs: 67 13
reacted_atom_IDs: 187 181
reacted_atom_IDs: 148 166
reacted_atom_IDs: 117 136
reacted_atom_IDs: 67 13
reacted_atom_IDs: 187 181
reacted_atom_IDs: 148 166
reacted_atom_IDs: 117 136
reacted_atom_IDs: 67 13
reacted_atom_IDs: 187 181
reacted_atom_IDs: 148 166
reacted_atom_IDs: 117 136
reacted_atom_IDs: 67 13
reacted_atom_IDs: 187 181
reacted_atom_IDs: 148 166
reacted_atom_IDs: 117 136
reacted_atom_IDs: 67 13
reacted_atom_IDs: 187 181
reacted_atom_IDs: 148 166
reacted_atom_IDs: 117 136
reacted_atom_IDs: 67 13
56,56,56,56,
  - [1560000, 0.53404798723578, 2.94755427260328, 56, 56, 56, 56, ]
reacted_atom_IDs: 198 147
reacted_atom_IDs: 95 78
reacted_atom_IDs: 55 50
reacted_atom_IDs: 122 118
reacted_atom_IDs: 198 147
reacted_atom_IDs: 95 78
reacted_atom_IDs: 55 50
reacted_atom_IDs: 122 118
reacted_atom_IDs: 198 147
reacted_atom_IDs: 95 78
reacted_atom_IDs: 55 50
reacted_atom_IDs: 122 118
reacted_atom_IDs: 198 147
reacted_atom_IDs: 95 78
reacted_atom_IDs: 55 50
reacted_atom_IDs: 122 118
reacted_atom_IDs: 198 147
reacted_atom_IDs: 95 78
reacted_atom_IDs: 55 50
reacted_atom_IDs: 122 118
reacted_atom_IDs: 198 147
reacted_atom_IDs: 95 78
reacted_atom_IDs: 55 50
reacted_atom_IDs: 122 118
reacted_atom_IDs: 198 147
reacted_atom_IDs: 95 78
reacted_atom_IDs: 55 50
reacted_atom_IDs: 122 118
reacted_atom_IDs: 198 147
reacted_atom_IDs: 95 78
reacted_atom_IDs: 55 50
reacted_atom_IDs: 122 118
reacted_atom_IDs: 198 147
reacted_atom_IDs: 95 78
reacted_atom_IDs: 55 50
reacted_atom_IDs: 122 118
reacted_atom_IDs: 198 147
reacted_atom_IDs: 95 78
reacted_atom_IDs: 55 50
reacted_atom_IDs: 122 118
57,57,57,57,
  - [1570000, 0.542515072299644, 2.94610944129399, 57, 57, 57, 57, ]
reacted_atom_IDs: 36 150
reacted_atom_IDs: 143 183
reacted_atom_IDs: 91 23
reacted_atom_IDs: 6 45
reacted_atom_IDs: 36 150
reacted_atom_IDs: 143 183
reacted_atom_IDs: 91 23
reacted_atom_IDs: 6 45
reacted_atom_IDs: 36 150
reacted_atom_IDs: 143 183
reacted_atom_IDs: 91 23
reacted_atom_IDs: 6 45
reacted_atom_IDs: 36 150
reacted_atom_IDs: 143 183
reacted_atom_IDs: 91 23
reacted_atom_IDs: 6 45
reacted_atom_IDs: 36 150
reacted_atom_IDs: 143 183
reacted_atom_IDs: 91 23
reacted_atom_IDs: 6 45
reacted_atom_IDs: 36 150
reacted_atom_IDs: 143 183
reacted_atom_IDs: 91 23
reacted_atom_IDs: 6 45
reacted_atom_IDs: 36 150
reacted_atom_IDs: 143 183
reacted_atom_IDs: 91 23
reacted_atom_IDs: 6 45
reacted_atom_IDs: 36 150
reacted_atom_IDs: 143 183
reacted_atom_IDs: 91 23
reacted_atom_IDs: 6 45
reacted_atom_IDs: 36 150
reacted_atom_IDs: 143 183
reacted_atom_IDs: 91 23
reacted_atom_IDs: 6 45
reacted_atom_IDs: 36 150
reacted_atom_IDs: 143 183
reacted_atom_IDs: 91 23
reacted_atom_IDs: 6 45
58,58,58,58,
  - [1580000, 0.554679236701429, 2.92951566788427, 58, 58, 58, 58, ]
reacted_atom_IDs: 152 34
reacted_atom_IDs: 31 27
reacted_atom_IDs: 164 184
reacted_atom_IDs: 138 162
reacted_atom_IDs: 152 34
reacted_atom_IDs: 31 27
reacted_atom_IDs: 164 184
reacted_atom_IDs: 138 162
reacted_atom_IDs: 152 34
reacted_atom_IDs: 31 27
reacted_atom_IDs: 164 184
reacted_atom_IDs: 138 162
reacted_atom_IDs: 152 34
reacted_atom_IDs: 31 27
reacted_atom_IDs: 164 184
reacted_atom_IDs: 138 162
reacted_atom_IDs: 152 34
reacted_atom_IDs: 31 27
reacted_atom_IDs: 164 184
reacted_atom_IDs: 138 162
reacted_atom_IDs: 152 34
reacted_atom_IDs: 31 27
reacted_atom_IDs: 164 184
reacted_atom_IDs: 138 162
reacted_atom_IDs: 152 34
reacted_atom_IDs: 31 27
reacted_atom_IDs: 164 184
reacted_atom_IDs: 138 162
reacted_atom_IDs: 152 34
reacted_atom_IDs: 31 27
reacted_atom_IDs: 164 184
reacted_atom_IDs: 138 162
reacted_atom_IDs: 152 34
reacted_atom_IDs: 31 27
reacted_atom_IDs: 164 184
reacted_atom_IDs: 138 162
reacted_atom_IDs: 152 34
reacted_atom_IDs: 31 27
reacted_atom_IDs: 164 184
reacted_atom_IDs: 138 162
59,59,59,59,
  - [1590000, 0.537160528420809, 2.90866115292358, 59, 59, 59, 59, ]
reacted_atom_IDs: 165 114
reacted_atom_IDs: 99 93
reacted_atom_IDs: 5 43
reacted_atom_IDs: 64 4
reacted_atom_IDs: 165 114
reacted_atom_IDs: 99 93
reacted_atom_IDs: 5 43
reacted_atom_IDs: 64 4
reacted_atom_IDs: 165 114
reacted_atom_IDs: 99 93
reacted_atom_IDs: 5 43
reacted_atom_IDs: 64 4
reacted_atom_IDs: 165 114
reacted_atom_IDs: 99 93
reacted_atom_IDs: 5 43
reacted_atom_IDs: 64 4
reacted_atom_IDs: 165 114
reacted_atom_IDs: 99 93
reacted_atom_IDs: 5 43
reacted_atom_IDs: 64 4
reacted_atom_IDs: 165 114
reacted_atom_IDs: 99 93
reacted_atom_IDs: 5 43
reacted_atom_IDs: 64 4
reacted_atom_IDs: 165 114
reacted_atom_IDs: 99 93
reacted_atom_IDs: 5 43
reacted_atom_IDs: 64 4
reacted_atom_IDs: 165 114
reacted_atom_IDs: 99 93
reacted_atom_IDs: 5 43
reacted_atom_IDs: 64 4
reacted_atom_IDs: 165 114
reacted_atom_IDs: 99 93
reacted_atom_IDs: 5 43
reacted_atom_IDs: 64 4
reacted_atom_IDs: 165 114
reacted_atom_IDs: 99 93
reacted_atom_IDs: 5 43
reacted_atom_IDs: 64 4
60,60,60,60,
  - [1600000, 0.551093558167796, 2.8923370347874, 60, 60, 60, 60, ]
reacted_atom_IDs: 130 108
reacted_atom_IDs: 193 174
reacted_atom_IDs: 113 118
reacted_atom_IDs: 95 72
reacted_atom_IDs: 130 108
reacted_atom_IDs: 193 174
reacted_atom_IDs: 113 118
reacted_atom_IDs: 95 72
reacted_atom_IDs: 130 108
reacted_atom_IDs: 193 174
reacted_atom_IDs: 113 118
reacted_atom_IDs: 95 72
reacted_atom_IDs: 130 108
reacted_atom_IDs: 193 174
reacted_atom_IDs: 113 118
reacted_atom_IDs: 95 72
reacted_atom_IDs: 130 108
reacted_atom_IDs: 193 174
reacted_atom_IDs: 113 118
reacted_atom_IDs: 95 72
reacted_atom_IDs: 130 108
reacted_atom_IDs: 193 174
reacted_atom_IDs: 113 118
reacted_atom_IDs: 95 72
reacted_atom_IDs: 130 108
reacted_atom_IDs: 193 174
reacted_atom_IDs: 113 118
reacted_atom_IDs: 95 72
reacted_atom_IDs: 130 108
reacted_atom_IDs: 193 174
reacted_atom_IDs: 113 118
reacted_atom_IDs: 95 72
reacted_atom_IDs: 130 108
reacted_atom_IDs: 193 174
reacted_atom_IDs: 113 118
reacted_atom_IDs: 95 72
reacted_atom_IDs: 130 108
reacted_atom_IDs: 193 174
reacted_atom_IDs: 113 118
reacted_atom_IDs: 95 72
61,61,61,61,
  - [1610000, 0.56739787334801, 2.89347444696889, 61, 61, 61, 61, ]
reacted_atom_IDs: 125 138
reacted_atom_IDs: 95 19
reacted_atom_IDs: 16 7
reacted_atom_IDs: 183 164
reacted_atom_IDs: 125 138
reacted_atom_IDs: 95 19
reacted_atom_IDs: 16 7
reacted_atom_IDs: 183 164
reacted_atom_IDs: 125 138
reacted_atom_IDs: 95 19
reacted_atom_IDs: 16 7
reacted_atom_IDs: 183 164
reacted_atom_IDs: 125 138
reacted_atom_IDs: 95 19
reacted_atom_IDs: 16 7
reacted_atom_IDs: 183 164
reacted_atom_IDs: 125 138
reacted_atom_IDs: 95 19
reacted_atom_IDs: 16 7
reacted_atom_IDs: 183 164
reacted_atom_IDs: 125 138
reacted_atom_IDs: 95 19
reacted_atom_IDs: 16 7
reacted_atom_IDs: 183 164
reacted_atom_IDs: 125 138
reacted_atom_IDs: 95 19
reacted_atom_IDs: 16 7
reacted_atom_IDs: 183 164
reacted_atom_IDs: 125 138
reacted_atom_IDs: 95 19
reacted_atom_IDs: 16 7
reacted_atom_IDs: 183 164
reacted_atom_IDs: 125 138
reacted_atom_IDs: 95 19
reacted_atom_IDs: 16 7
reacted_atom_IDs: 183 164
reacted_atom_IDs: 125 138
reacted_atom_IDs: 95 19
reacted_atom_IDs: 16 7
reacted_atom_IDs: 183 164
62,62,62,62,
  - [1620000, 0.542348346756569, 2.90003012735518, 62, 62, 62, 62, ]
reacted_atom_IDs: 95 13
reacted_atom_IDs: 31 27
reacted_atom_IDs: 41 45
reacted_atom_IDs: 104 134
reacted_atom_IDs: 95 13
reacted_atom_IDs: 31 27
reacted_atom_IDs: 41 45
reacted_atom_IDs: 104 134
reacted_atom_IDs: 95 13
reacted_atom_IDs: 31 27
reacted_atom_IDs: 41 45
reacted_atom_IDs: 104 134
reacted_atom_IDs: 95 13
reacted_atom_IDs: 31 27
reacted_atom_IDs: 41 45
reacted_atom_IDs: 104 134
reacted_atom_IDs: 95 13
reacted_atom_IDs: 31 27
reacted_atom_IDs: 41 45
reacted_atom_IDs: 104 134
reacted_atom_IDs: 95 13
reacted_atom_IDs: 31 27
reacted_atom_IDs: 41 45
reacted_atom_IDs: 104 134
reacted_atom_IDs: 95 13
reacted_atom_IDs: 31 27
reacted_atom_IDs: 41 45
reacted_atom_IDs: 104 134
reacted_atom_IDs: 95 13
reacted_atom_IDs: 31 27
reacted_atom_IDs: 41 45
reacted_atom_IDs: 104 134
reacted_atom_IDs: 95 13
reacted_atom_IDs: 31 27
reacted_atom_IDs: 41 45
reacted_atom_IDs: 104 134
reacted_atom_IDs: 95 13
reacted_atom_IDs: 31 27
reacted_atom_IDs: 41 45
reacted_atom_IDs: 104 134
63,63,63,63,
  - [1630000, 0.543838075106579, 2.89271544956775, 63, 63, 63, 63, ]
reacted_atom_IDs: 131 136
reacted_atom_IDs: 75 71
reacted_atom_IDs: 135 106
reacted_atom_IDs: 7 48
reacted_atom_IDs: 131 136
reacted_atom_IDs: 75 71
reacted_atom_IDs: 135 106
reacted_atom_IDs: 7 48
reacted_atom_IDs: 131 136
reacted_atom_IDs: 75 71
reacted_atom_IDs: 135 106
reacted_atom_IDs: 7 48
reacted_atom_IDs: 131 136
reacted_atom_IDs: 75 71
reacted_atom_IDs: 135 106
reacted_atom_IDs: 7 48
reacted_atom_IDs: 131 136
reacted_atom_IDs: 75 71
reacted_atom_IDs: 135 106
reacted_atom_IDs: 7 48
reacted_atom_IDs: 131 136
reacted_atom_IDs: 75 71
reacted_atom_IDs: 135 106
reacted_atom_IDs: 7 48
reacted_atom_IDs: 131 136
reacted_atom_IDs: 75 71
reacted_atom_IDs: 135 106
reacted_atom_IDs: 7 48
reacted_atom_IDs: 131 136
reacted_atom_IDs: 75 71
reacted_atom_IDs: 135 106
reacted_atom_IDs: 7 48
reacted_atom_IDs: 131 136
reacted_atom_IDs: 75 71
reacted_atom_IDs: 135 106
reacted_atom_IDs: 7 48
reacted_atom_IDs: 131 136
reacted_atom_IDs: 75 71
reacted_atom_IDs: 135 106
reacted_atom_IDs: 7 48
64,64,64,64,
  - [1640000, 0.563808809430184, 2.93939035645831, 64, 64, 64, 64, ]
reacted_atom_IDs: 75 97
reacted_atom_IDs: 103 169
reacted_atom_IDs: 123 3
reacted_atom_IDs: 20 57
reacted_atom_IDs: 75 97
reacted_atom_IDs: 103 169
reacted_atom_IDs: 123 3
reacted_atom_IDs: 20 57
reacted_atom_IDs: 75 97
reacted_atom_IDs: 103 169
reacted_atom_IDs: 123 3
reacted_atom_IDs: 20 57
reacted_atom_IDs: 75 97
reacted_atom_IDs: 103 169
reacted_atom_IDs: 123 3
reacted_atom_IDs: 20 57
reacted_atom_IDs: 75 97
reacted_atom_IDs: 103 169
reacted_atom_IDs: 123 3
reacted_atom_IDs: 20 57
reacted_atom_IDs: 75 97
reacted_atom_IDs: 103 169
reacted_atom_IDs: 123 3
reacted_atom_IDs: 20 57
reacted_atom_IDs: 75 97
reacted_atom_IDs: 103 169
reacted_atom_IDs: 123 3
reacted_atom_IDs: 20 57
reacted_atom_IDs: 75 97
reacted_atom_IDs: 103 169
reacted_atom_IDs: 123 3
reacted_atom_IDs: 20 57
reacted_atom_IDs: 75 97
reacted_atom_IDs: 103 169
reacted_atom_IDs: 123 3
reacted_atom_IDs: 20 57
reacted_atom_IDs: 75 97
reacted_atom_IDs: 103 169
reacted_atom_IDs: 123 3
reacted_atom_IDs: 20 57
65,65,65,65,
  - [1650000, 0.599266313222707, 2.87883312194419, 65, 65, 65, 65, ]
reacted_atom_IDs: 23 155
reacted_atom_IDs: 15 96
reacted_atom_IDs: 129 107
reacted_atom_IDs: 180 151
reacted_atom_IDs: 23 155
reacted_atom_IDs: 15 96
reacted_atom_IDs: 129 107
reacted_atom_IDs: 180 151
reacted_atom_IDs: 23 155
reacted_atom_IDs: 15 96
reacted_atom_IDs: 129 107
reacted_atom_IDs: 180 151
reacted_atom_IDs: 23 155
reacted_atom_IDs: 15 96
reacted_atom_IDs: 129 107
reacted_atom_IDs: 180 151
reacted_atom_IDs: 23 155
reacted_atom_IDs: 15 96
reacted_atom_IDs: 129 107
reacted_atom_IDs: 180 151
reacted_atom_IDs: 23 155
reacted_atom_IDs: 15 96
reacted_atom_IDs: 129 107
reacted_atom_IDs: 180 151
reacted_atom_IDs: 23 155
reacted_atom_IDs: 15 96
reacted_atom_IDs: 129 107
reacted_atom_IDs: 180 151
reacted_atom_IDs: 23 155
reacted_atom_IDs: 15 96
reacted_atom_IDs: 129 107
reacted_atom_IDs: 180 151
reacted_atom_IDs: 23 155
reacted_atom_IDs: 15 96
reacted_atom_IDs: 129 107
reacted_atom_IDs: 180 151
reacted_atom_IDs: 23 155
reacted_atom_IDs: 15 96
reacted_atom_IDs: 129 107
reacted_atom_IDs: 180 151
66,66,66,66,
  - [1660000, 0.559454772235795, 2.79858775011325, 66, 66, 66, 66, ]
reacted_atom_IDs: 117 111
reacted_atom_IDs: 133 105
reacted_atom_IDs: 115 61
reacted_atom_IDs: 139 163
reacted_atom_IDs: 117 111
reacted_atom_IDs: 133 105
reacted_atom_IDs: 115 61
reacted_atom_IDs: 139 163
reacted_atom_IDs: 117 111
reacted_atom_IDs: 133 105
reacted_atom_IDs: 115 61
reacted_atom_IDs: 139 163
reacted_atom_IDs: 117 111
reacted_atom_IDs: 133 105
reacted_atom_IDs: 115 61
reacted_atom_IDs: 139 163
reacted_atom_IDs: 117 111
reacted_atom_IDs: 133 105
reacted_atom_IDs: 115 61
reacted_atom_IDs: 139 163
reacted_atom_IDs: 117 111
reacted_atom_IDs: 133 105
reacted_atom_IDs: 115 61
reacted_atom_IDs: 139 163
reacted_atom_IDs: 117 111
reacted_atom_IDs: 133 105
reacted_atom_IDs: 115 61
reacted_atom_IDs: 139 163
reacted_atom_IDs: 117 111
reacted_atom_IDs: 133 105
reacted_atom_IDs: 115 61
reacted_atom_IDs: 139 163
reacted_atom_IDs: 117 111
reacted_atom_IDs: 133 105
reacted_atom_IDs: 115 61
reacted_atom_IDs: 139 163
reacted_atom_IDs: 117 111
reacted_atom_IDs: 133 105
reacted_atom_IDs: 115 61
reacted_atom_IDs: 139 163
67,67,67,67,
  - [1670000, 0.554859128745747, 2.78068929391446, 67, 67, 67, 67, ]
reacted_atom_IDs: 7 64
reacted_atom_IDs: 15 48
reacted_atom_IDs: 196 134
reacted_atom_IDs: 59 63
reacted_atom_IDs: 7 64
reacted_atom_IDs: 15 48
reacted_atom_IDs: 196 134
reacted_atom_IDs: 59 63
reacted_atom_IDs: 7 64
reacted_atom_IDs: 15 48
reacted_atom_IDs: 196 134
reacted_atom_IDs: 59 63
reacted_atom_IDs: 7 64
reacted_atom_IDs: 15 48
reacted_atom_IDs: 196 134
reacted_atom_IDs: 59 63
reacted_atom_IDs: 7 64
reacted_atom_IDs: 15 48
reacted_atom_IDs: 196 134
reacted_atom_IDs: 59 63
reacted_atom_IDs: 7 64
reacted_atom_IDs: 15 48
reacted_atom_IDs: 196 134
reacted_atom_IDs: 59 63
reacted_atom_IDs: 7 64
reacted_atom_IDs: 15 48
reacted_atom_IDs: 196 134
reacted_atom_IDs: 59 63
reacted_atom_IDs: 7 64
reacted_atom_IDs: 15 48
reacted_atom_IDs: 196 134
reacted_atom_IDs: 59 63
reacted_atom_IDs: 7 64
reacted_atom_IDs: 15 48
reacted_atom_IDs: 196 134
reacted_atom_IDs: 59 63
reacted_atom_IDs: 7 64
reacted_atom_IDs: 15 48
reacted_atom_IDs: 196 134
reacted_atom_IDs: 59 63
68,68,68,68,
  - [1680000, 0.550693539472858, 2.78010940423867, 68, 68, 68, 68, ]
reacted_atom_IDs: 83 78
reacted_atom_IDs: 123 141
reacted_atom_IDs: 73 89
reacted_atom_IDs: 117 121
reacted_atom_IDs: 83 78
reacted_atom_IDs: 123 141
reacted_atom_IDs: 73 89
reacted_atom_IDs: 117 121
reacted_atom_IDs: 83 78
reacted_atom_IDs: 123 141
reacted_atom_IDs: 73 89
reacted_atom_IDs: 117 121
reacted_atom_IDs: 83 78
reacted_atom_IDs: 123 141
reacted_atom_IDs: 73 89
reacted_atom_IDs: 117 121
reacted_atom_IDs: 83 78
reacted_atom_IDs: 123 141
reacted_atom_IDs: 73 89
reacted_atom_IDs: 117 121
reacted_atom_IDs: 83 78
reacted_atom_IDs: 123 141
reacted_atom_IDs: 73 89
reacted_atom_IDs: 117 121
reacted_atom_IDs: 83 78
reacted_atom_IDs: 123 141
reacted_atom_IDs: 73 89
reacted_atom_IDs: 117 121
reacted_atom_IDs: 83 78
reacted_atom_IDs: 123 141
reacted_atom_IDs: 73 89
reacted_atom_IDs: 117 121
reacted_atom_IDs: 83 78
reacted_atom_IDs: 123 141
reacted_atom_IDs: 73 89
reacted_atom_IDs: 117 121
reacted_atom_IDs: 83 78
reacted_atom_IDs: 123 141
reacted_atom_IDs: 73 89
reacted_atom_IDs: 117 121
69,69,69,69,
  - [1690000, 0.551176299989706, 2.76090794539887, 69, 69, 69, 69, ]
reacted_atom_IDs: 60 56
reacted_atom_IDs: 153 172
reacted_atom_IDs: 196 165
reacted_atom_IDs: 11 101
reacted_atom_IDs: 60 56
reacted_atom_IDs: 153 172
reacted_atom_IDs: 196 165
reacted_atom_IDs: 11 101
reacted_atom_IDs: 60 56
reacted_atom_IDs: 153 172
reacted_atom_IDs: 196 165
reacted_atom_IDs: 11 101
reacted_atom_IDs: 60 56
reacted_atom_IDs: 153 172
reacted_atom_IDs: 196 165
reacted_atom_IDs: 11 101
reacted_atom_IDs: 60 56
reacted_atom_IDs: 153 172
reacted_atom_IDs: 196 165
reacted_atom_IDs: 11 101
reacted_atom_IDs: 60 56
reacted_atom_IDs: 153 172
reacted_atom_IDs: 196 165
reacted_atom_IDs: 11 101
reacted_atom_IDs: 60 56
reacted_atom_IDs: 153 172
reacted_atom_IDs: 196 165
reacted_atom_IDs: 11 101
reacted_atom_IDs: 60 56
reacted_atom_IDs: 153 172
reacted_atom_IDs: 196 165
reacted_atom_IDs: 11 101
reacted_atom_IDs: 60 56
reacted_atom_IDs: 153 172
reacted_atom_IDs: 196 165
reacted_atom_IDs: 11 101
reacted_atom_IDs: 60 56
reacted_atom_IDs: 153 172
reacted_atom_IDs: 196 165
reacted_atom_IDs: 11 101
70,70,70,70,
  - [1700000, 0.549765652221446, 2.78175831541388, 70, 70, 70, 70, ]
reacted_atom_IDs: 144 140
reacted_atom_IDs: 115 119
reacted_atom_IDs: 32 28
reacted_atom_IDs: 125 129
reacted_atom_IDs: 144 140
reacted_atom_IDs: 115 119
reacted_atom_IDs: 32 28
reacted_atom_IDs: 125 129
reacted_atom_IDs: 144 140
reacted_atom_IDs: 115 119
reacted_atom_IDs: 32 28
reacted_atom_IDs: 125 129
reacted_atom_IDs: 144 140
reacted_atom_IDs: 115 119
reacted_atom_IDs: 32 28
reacted_atom_IDs: 125 129
reacted_atom_IDs: 144 140
reacted_atom_IDs: 115 119
reacted_atom_IDs: 32 28
reacted_atom_IDs: 125 129
reacted_atom_IDs: 144 140
reacted_atom_IDs: 115 119
reacted_atom_IDs: 32 28
reacted_atom_IDs: 125 129
reacted_atom_IDs: 144 140
reacted_atom_IDs: 115 119
reacted_atom_IDs: 32 28
reacted_atom_IDs: 125 129
reacted_atom_IDs: 144 140
reacted_atom_IDs: 115 119
reacted_atom_IDs: 32 28
reacted_atom_IDs: 125 129
reacted_atom_IDs: 144 140
reacted_atom_IDs: 115 119
reacted_atom_IDs: 32 28
reacted_atom_IDs: 125 129
reacted_atom_IDs: 144 140
reacted_atom_IDs: 115 119
reacted_atom_IDs: 32 28
reacted_atom_IDs: 125 129
71,71,71,71,
  - [1710000, 0.543536457398654, 2.74782813077776, 71, 71, 71, 71, ]
reacted_atom_IDs: 91 101
reacted_atom_IDs: 76 160
reacted_atom_IDs: 106 78
reacted_atom_IDs: 119 136
reacted_atom_IDs: 91 101
reacted_atom_IDs: 76 160
reacted_atom_IDs: 106 78
reacted_atom_IDs: 119 136
reacted_atom_IDs: 91 101
reacted_atom_IDs: 76 160
reacted_atom_IDs: 106 78
reacted_atom_IDs: 119 136
reacted_atom_IDs: 91 101
reacted_atom_IDs: 76 160
reacted_atom_IDs: 106 78
reacted_atom_IDs: 119 136
reacted_atom_IDs: 91 101
reacted_atom_IDs: 76 160
reacted_atom_IDs: 106 78
reacted_atom_IDs: 119 136
reacted_atom_IDs: 91 101
reacted_atom_IDs: 76 160
reacted_atom_IDs: 106 78
reacted_atom_IDs: 119 136
reacted_atom_IDs: 91 101
reacted_atom_IDs: 76 160
reacted_atom_IDs: 106 78
reacted_atom_IDs: 119 136
reacted_atom_IDs: 91 101
reacted_atom_IDs: 76 160
reacted_atom_IDs: 106 78
reacted_atom_IDs: 119 136
reacted_atom_IDs: 91 101
reacted_atom_IDs: 76 160
reacted_atom_IDs: 106 78
reacted_atom_IDs: 119 136
reacted_atom_IDs: 91 101
reacted_atom_IDs: 76 160
reacted_atom_IDs: 106 78
reacted_atom_IDs: 119 136
72,72,72,72,
  - [1720000, 0.546897660556364, 2.7713999147395, 72, 72, 72, 72, ]
reacted_atom_IDs: 119 134
reacted_atom_IDs: 27 150
reacted_atom_IDs: 11 68
reacted_atom_IDs: 57 169
reacted_atom_IDs: 119 134
reacted_atom_IDs: 27 150
reacted_atom_IDs: 11 68
reacted_atom_IDs: 57 169
reacted_atom_IDs: 119 134
reacted_atom_IDs: 27 150
reacted_atom_IDs: 11 68
reacted_atom_IDs: 57 169
reacted_atom_IDs: 119 134
reacted_atom_IDs: 27 150
reacted_atom_IDs: 11 68
reacted_atom_IDs: 57 169
reacted_atom_IDs: 119 134
reacted_atom_IDs: 27 150
reacted_atom_IDs: 11 68
reacted_atom_IDs: 57 169
reacted_atom_IDs: 119 134
reacted_atom_IDs: 27 150
reacted_atom_IDs: 11 68
reacted_atom_IDs: 57 169
reacted_atom_IDs: 119 134
reacted_atom_IDs: 27 150
reacted_atom_IDs: 11 68
reacted_atom_IDs: 57 169
reacted_atom_IDs: 119 134
reacted_atom_IDs: 27 150
reacted_atom_IDs: 11 68
reacted_atom_IDs: 57 169
reacted_atom_IDs: 119 134
reacted_atom_IDs: 27 150
reacted_atom_IDs: 11 68
reacted_atom_IDs: 57 169
reacted_atom_IDs: 119 134
reacted_atom_IDs: 27 150
reacted_atom_IDs: 11 68
reacted_atom_IDs: 57 169
73,73,73,73,
  - [1730000, 0.562803149328104, 2.76757767965991, 73, 73, 73, 73, ]
reacted_atom_IDs: 62 102
reacted_atom_IDs: 27 22
reacted_atom_IDs: 104 80
reacted_atom_IDs: 144 116
reacted_atom_IDs: 62 102
reacted_atom_IDs: 27 22
reacted_atom_IDs: 104 80
reacted_atom_IDs: 144 116
reacted_atom_IDs: 62 102
reacted_atom_IDs: 27 22
reacted_atom_IDs: 104 80
reacted_atom_IDs: 144 116
reacted_atom_IDs: 62 102
reacted_atom_IDs: 27 22
reacted_atom_IDs: 104 80
reacted_atom_IDs: 144 116
reacted_atom_IDs: 62 102
reacted_atom_IDs: 27 22
reacted_atom_IDs: 104 80
reacted_atom_IDs: 144 116
reacted_atom_IDs: 62 102
reacted_atom_IDs: 27 22
reacted_atom_IDs: 104 80
reacted_atom_IDs: 144 116
reacted_atom_IDs: 62 102
reacted_atom_IDs: 27 22
reacted_atom_IDs: 104 80
reacted_atom_IDs: 144 116
reacted_atom_IDs: 62 102
reacted_atom_IDs: 27 22
reacted_atom_IDs: 104 80
reacted_atom_IDs: 144 116
reacted_atom_IDs: 62 102
reacted_atom_IDs: 27 22
reacted_atom_IDs: 104 80
reacted_atom_IDs: 144 116
reacted_atom_IDs: 62 102
reacted_atom_IDs: 27 22
reacted_atom_IDs: 104 80
reacted_atom_IDs: 144 116
74,74,74,74,
  - [1740000, 0.562299118507428, 2.78478190637476, 74, 74, 74, 74, ]
reacted_atom_IDs: 163 150
reacted_atom_IDs: 15 93
reacted_atom_IDs: 151 155
reacted_atom_IDs: 193 40
reacted_atom_IDs: 163 150
reacted_atom_IDs: 15 93
reacted_atom_IDs: 151 155
reacted_atom_IDs: 193 40
reacted_atom_IDs: 163 150
reacted_atom_IDs: 15 93
reacted_atom_IDs: 151 155
reacted_atom_IDs: 193 40
reacted_atom_IDs: 163 150
reacted_atom_IDs: 15 93
reacted_atom_IDs: 151 155
reacted_atom_IDs: 193 40
reacted_atom_IDs: 163 150
reacted_atom_IDs: 15 93
reacted_atom_IDs: 151 155
reacted_atom_IDs: 193 40
reacted_atom_IDs: 163 150
reacted_atom_IDs: 15 93
reacted_atom_IDs: 151 155
reacted_atom_IDs: 193 40
reacted_atom_IDs: 163 150
reacted_atom_IDs: 15 93
reacted_atom_IDs: 151 155
reacted_atom_IDs: 193 40
reacted_atom_IDs: 163 150
reacted_atom_IDs: 15 93
[...]
reacted_atom_IDs: 44 177
reacted_atom_IDs: 82 78
reacted_atom_IDs: 129 125
reacted_atom_IDs: 69 7
reacted_atom_IDs: 44 177
reacted_atom_IDs: 82 78
reacted_atom_IDs: 129 125
reacted_atom_IDs: 69 7
reacted_atom_IDs: 44 177
reacted_atom_IDs: 82 78
reacted_atom_IDs: 129 125
reacted_atom_IDs: 69 7
reacted_atom_IDs: 44 177
reacted_atom_IDs: 82 78
reacted_atom_IDs: 129 125
reacted_atom_IDs: 69 7
reacted_atom_IDs: 44 177
reacted_atom_IDs: 82 78
127,127,127,127,
  - [2270000, 0.559653211808976, 2.71712968226259, 127, 127, 127, 127, ]
reacted_atom_IDs: 69 5
reacted_atom_IDs: 9 13
reacted_atom_IDs: 28 176
reacted_atom_IDs: 154 138
reacted_atom_IDs: 69 5
reacted_atom_IDs: 9 13
reacted_atom_IDs: 28 176
reacted_atom_IDs: 154 138
reacted_atom_IDs: 69 5
reacted_atom_IDs: 9 13
reacted_atom_IDs: 28 176
reacted_atom_IDs: 154 138
reacted_atom_IDs: 69 5
reacted_atom_IDs: 9 13
reacted_atom_IDs: 28 176
reacted_atom_IDs: 154 138
reacted_atom_IDs: 69 5
reacted_atom_IDs: 9 13
reacted_atom_IDs: 28 176
reacted_atom_IDs: 154 138
reacted_atom_IDs: 69 5
reacted_atom_IDs: 9 13
reacted_atom_IDs: 28 176
reacted_atom_IDs: 154 138
reacted_atom_IDs: 69 5
reacted_atom_IDs: 9 13
reacted_atom_IDs: 28 176
reacted_atom_IDs: 154 138
reacted_atom_IDs: 69 5
reacted_atom_IDs: 9 13
reacted_atom_IDs: 28 176
reacted_atom_IDs: 154 138
reacted_atom_IDs: 69 5
reacted_atom_IDs: 9 13
reacted_atom_IDs: 28 176
reacted_atom_IDs: 154 138
reacted_atom_IDs: 69 5
reacted_atom_IDs: 9 13
reacted_atom_IDs: 28 176
reacted_atom_IDs: 154 138
128,128,128,128,
  - [2280000, 0.529913957707669, 2.74894552894264, 128, 128, 128, 128, ]
reacted_atom_IDs: 190 179
reacted_atom_IDs: 57 80
reacted_atom_IDs: 166 97
reacted_atom_IDs: 143 147
reacted_atom_IDs: 190 179
reacted_atom_IDs: 57 80
reacted_atom_IDs: 166 97
reacted_atom_IDs: 143 147
reacted_atom_IDs: 190 179
reacted_atom_IDs: 57 80
reacted_atom_IDs: 166 97
reacted_atom_IDs: 143 147
reacted_atom_IDs: 190 179
reacted_atom_IDs: 57 80
reacted_atom_IDs: 166 97
reacted_atom_IDs: 143 147
reacted_atom_IDs: 190 179
reacted_atom_IDs: 57 80
reacted_atom_IDs: 166 97
reacted_atom_IDs: 143 147
reacted_atom_IDs: 190 179
reacted_atom_IDs: 57 80
reacted_atom_IDs: 166 97
reacted_atom_IDs: 143 147
reacted_atom_IDs: 190 179
reacted_atom_IDs: 57 80
reacted_atom_IDs: 166 97
reacted_atom_IDs: 143 147
reacted_atom_IDs: 190 179
reacted_atom_IDs: 57 80
reacted_atom_IDs: 166 97
reacted_atom_IDs: 143 147
reacted_atom_IDs: 190 179
reacted_atom_IDs: 57 80
reacted_atom_IDs: 166 97
reacted_atom_IDs: 143 147
reacted_atom_IDs: 190 179
reacted_atom_IDs: 57 80
reacted_atom_IDs: 166 97
reacted_atom_IDs: 143 147
129,129,129,129,
  - [2290000, 0.567469932790107, 2.71050473697955, 129, 129, 129, 129, ]
reacted_atom_IDs: 103 89
reacted_atom_IDs: 18 6
reacted_atom_IDs: 165 96
reacted_atom_IDs: 39 122
reacted_atom_IDs: 103 89
reacted_atom_IDs: 18 6
reacted_atom_IDs: 165 96
reacted_atom_IDs: 39 122
reacted_atom_IDs: 103 89
reacted_atom_IDs: 18 6
reacted_atom_IDs: 165 96
reacted_atom_IDs: 39 122
reacted_atom_IDs: 103 89
reacted_atom_IDs: 18 6
reacted_atom_IDs: 165 96
reacted_atom_IDs: 39 122
reacted_atom_IDs: 103 89
reacted_atom_IDs: 18 6
reacted_atom_IDs: 165 96
reacted_atom_IDs: 39 122
reacted_atom_IDs: 103 89
reacted_atom_IDs: 18 6
reacted_atom_IDs: 165 96
reacted_atom_IDs: 39 122
reacted_atom_IDs: 103 89
reacted_atom_IDs: 18 6
reacted_atom_IDs: 165 96
reacted_atom_IDs: 39 122
reacted_atom_IDs: 103 89
reacted_atom_IDs: 18 6
reacted_atom_IDs: 165 96
reacted_atom_IDs: 39 122
reacted_atom_IDs: 103 89
reacted_atom_IDs: 18 6
reacted_atom_IDs: 165 96
reacted_atom_IDs: 39 122
reacted_atom_IDs: 103 89
reacted_atom_IDs: 18 6
reacted_atom_IDs: 165 96
reacted_atom_IDs: 39 122
130,130,130,130,
  - [2300000, 0.544787759321843, 2.72459035536206, 130, 130, 130, 130, ]
reacted_atom_IDs: 63 102
reacted_atom_IDs: 122 90
reacted_atom_IDs: 106 65
reacted_atom_IDs: 23 184
reacted_atom_IDs: 63 102
reacted_atom_IDs: 122 90
reacted_atom_IDs: 106 65
reacted_atom_IDs: 23 184
reacted_atom_IDs: 63 102
reacted_atom_IDs: 122 90
reacted_atom_IDs: 106 65
reacted_atom_IDs: 23 184
reacted_atom_IDs: 63 102
reacted_atom_IDs: 122 90
reacted_atom_IDs: 106 65
reacted_atom_IDs: 23 184
reacted_atom_IDs: 63 102
reacted_atom_IDs: 122 90
reacted_atom_IDs: 106 65
reacted_atom_IDs: 23 184
reacted_atom_IDs: 63 102
reacted_atom_IDs: 122 90
reacted_atom_IDs: 106 65
reacted_atom_IDs: 23 184
reacted_atom_IDs: 63 102
reacted_atom_IDs: 122 90
reacted_atom_IDs: 106 65
reacted_atom_IDs: 23 184
reacted_atom_IDs: 63 102
reacted_atom_IDs: 122 90
reacted_atom_IDs: 106 65
reacted_atom_IDs: 23 184
reacted_atom_IDs: 63 102
reacted_atom_IDs: 122 90
reacted_atom_IDs: 106 65
reacted_atom_IDs: 23 184
reacted_atom_IDs: 63 102
reacted_atom_IDs: 122 90
reacted_atom_IDs: 106 65
reacted_atom_IDs: 23 184
131,131,131,131,
  - [2310000, 0.528689151752968, 2.69424654552351, 131, 131, 131, 131, ]
reacted_atom_IDs: 165 96
reacted_atom_IDs: 44 126
reacted_atom_IDs: 171 65
reacted_atom_IDs: 37 11
reacted_atom_IDs: 165 96
reacted_atom_IDs: 44 126
reacted_atom_IDs: 171 65
reacted_atom_IDs: 37 11
reacted_atom_IDs: 165 96
reacted_atom_IDs: 44 126
reacted_atom_IDs: 171 65
reacted_atom_IDs: 37 11
reacted_atom_IDs: 165 96
reacted_atom_IDs: 44 126
reacted_atom_IDs: 171 65
reacted_atom_IDs: 37 11
reacted_atom_IDs: 165 96
reacted_atom_IDs: 44 126
reacted_atom_IDs: 171 65
reacted_atom_IDs: 37 11
reacted_atom_IDs: 165 96
reacted_atom_IDs: 44 126
reacted_atom_IDs: 171 65
reacted_atom_IDs: 37 11
reacted_atom_IDs: 165 96
reacted_atom_IDs: 44 126
reacted_atom_IDs: 171 65
reacted_atom_IDs: 37 11
reacted_atom_IDs: 165 96
reacted_atom_IDs: 44 126
reacted_atom_IDs: 171 65
reacted_atom_IDs: 37 11
reacted_atom_IDs: 165 96
reacted_atom_IDs: 44 126
reacted_atom_IDs: 171 65
reacted_atom_IDs: 37 11
reacted_atom_IDs: 165 96
reacted_atom_IDs: 44 126
reacted_atom_IDs: 171 65
reacted_atom_IDs: 37 11
132,132,132,132,
  - [2320000, 0.544101600009305, 2.72728357622738, 132, 132, 132, 132, ]
reacted_atom_IDs: 63 106
reacted_atom_IDs: 11 117
reacted_atom_IDs: 122 103
reacted_atom_IDs: 47 26
reacted_atom_IDs: 63 106
reacted_atom_IDs: 11 117
reacted_atom_IDs: 122 103
reacted_atom_IDs: 47 26
reacted_atom_IDs: 63 106
reacted_atom_IDs: 11 117
reacted_atom_IDs: 122 103
reacted_atom_IDs: 47 26
reacted_atom_IDs: 63 106
reacted_atom_IDs: 11 117
reacted_atom_IDs: 122 103
reacted_atom_IDs: 47 26
reacted_atom_IDs: 63 106
reacted_atom_IDs: 11 117
reacted_atom_IDs: 122 103
reacted_atom_IDs: 47 26
reacted_atom_IDs: 63 106
reacted_atom_IDs: 11 117
reacted_atom_IDs: 122 103
reacted_atom_IDs: 47 26
reacted_atom_IDs: 63 106
reacted_atom_IDs: 11 117
reacted_atom_IDs: 122 103
reacted_atom_IDs: 47 26
reacted_atom_IDs: 63 106
reacted_atom_IDs: 11 117
reacted_atom_IDs: 122 103
reacted_atom_IDs: 47 26
reacted_atom_IDs: 63 106
reacted_atom_IDs: 11 117
reacted_atom_IDs: 122 103
reacted_atom_IDs: 47 26
reacted_atom_IDs: 63 106
reacted_atom_IDs: 11 117
reacted_atom_IDs: 122 103
reacted_atom_IDs: 47 26
133,133,133,133,
  - [2330000, 0.559277164225834, 2.72277065006101, 133, 133, 133, 133, ]
reacted_atom_IDs: 193 169
reacted_atom_IDs: 10 6
reacted_atom_IDs: 88 136
reacted_atom_IDs: 166 135
reacted_atom_IDs: 193 169
reacted_atom_IDs: 10 6
reacted_atom_IDs: 88 136
reacted_atom_IDs: 166 135
reacted_atom_IDs: 193 169
reacted_atom_IDs: 10 6
reacted_atom_IDs: 88 136
reacted_atom_IDs: 166 135
reacted_atom_IDs: 193 169
reacted_atom_IDs: 10 6
reacted_atom_IDs: 88 136
reacted_atom_IDs: 166 135
reacted_atom_IDs: 193 169
reacted_atom_IDs: 10 6
reacted_atom_IDs: 88 136
reacted_atom_IDs: 166 135
reacted_atom_IDs: 193 169
reacted_atom_IDs: 10 6
reacted_atom_IDs: 88 136
reacted_atom_IDs: 166 135
reacted_atom_IDs: 193 169
reacted_atom_IDs: 10 6
reacted_atom_IDs: 88 136
reacted_atom_IDs: 166 135
reacted_atom_IDs: 193 169
reacted_atom_IDs: 10 6
reacted_atom_IDs: 88 136
reacted_atom_IDs: 166 135
reacted_atom_IDs: 193 169
reacted_atom_IDs: 10 6
reacted_atom_IDs: 88 136
reacted_atom_IDs: 166 135
reacted_atom_IDs: 193 169
reacted_atom_IDs: 10 6
reacted_atom_IDs: 88 136
reacted_atom_IDs: 166 135
134,134,134,134,
  - [2340000, 0.570765747362194, 2.69435087224119, 134, 134, 134, 134, ]
reacted_atom_IDs: 10 15
reacted_atom_IDs: 165 100
reacted_atom_IDs: 188 183
reacted_atom_IDs: 76 80
reacted_atom_IDs: 10 15
reacted_atom_IDs: 165 100
reacted_atom_IDs: 188 183
reacted_atom_IDs: 76 80
reacted_atom_IDs: 10 15
reacted_atom_IDs: 165 100
reacted_atom_IDs: 188 183
reacted_atom_IDs: 76 80
reacted_atom_IDs: 10 15
reacted_atom_IDs: 165 100
reacted_atom_IDs: 188 183
reacted_atom_IDs: 76 80
reacted_atom_IDs: 10 15
reacted_atom_IDs: 165 100
reacted_atom_IDs: 188 183
reacted_atom_IDs: 76 80
reacted_atom_IDs: 10 15
reacted_atom_IDs: 165 100
reacted_atom_IDs: 188 183
reacted_atom_IDs: 76 80
reacted_atom_IDs: 10 15
reacted_atom_IDs: 165 100
reacted_atom_IDs: 188 183
reacted_atom_IDs: 76 80
reacted_atom_IDs: 10 15
reacted_atom_IDs: 165 100
reacted_atom_IDs: 188 183
reacted_atom_IDs: 76 80
reacted_atom_IDs: 10 15
reacted_atom_IDs: 165 100
reacted_atom_IDs: 188 183
reacted_atom_IDs: 76 80
reacted_atom_IDs: 10 15
reacted_atom_IDs: 165 100
reacted_atom_IDs: 188 183
reacted_atom_IDs: 76 80
135,135,135,135,
  - [2350000, 0.560781639129263, 2.71883127633899, 135, 135, 135, 135, ]
reacted_atom_IDs: 174 179
reacted_atom_IDs: 101 63
reacted_atom_IDs: 104 113
reacted_atom_IDs: 144 67
reacted_atom_IDs: 174 179
reacted_atom_IDs: 101 63
reacted_atom_IDs: 104 113
reacted_atom_IDs: 144 67
reacted_atom_IDs: 174 179
reacted_atom_IDs: 101 63
reacted_atom_IDs: 104 113
reacted_atom_IDs: 144 67
reacted_atom_IDs: 174 179
reacted_atom_IDs: 101 63
reacted_atom_IDs: 104 113
reacted_atom_IDs: 144 67
reacted_atom_IDs: 174 179
reacted_atom_IDs: 101 63
reacted_atom_IDs: 104 113
reacted_atom_IDs: 144 67
reacted_atom_IDs: 174 179
reacted_atom_IDs: 101 63
reacted_atom_IDs: 104 113
reacted_atom_IDs: 144 67
reacted_atom_IDs: 174 179
reacted_atom_IDs: 101 63
reacted_atom_IDs: 104 113
reacted_atom_IDs: 144 67
reacted_atom_IDs: 174 179
reacted_atom_IDs: 101 63
reacted_atom_IDs: 104 113
reacted_atom_IDs: 144 67
reacted_atom_IDs: 174 179
reacted_atom_IDs: 101 63
reacted_atom_IDs: 104 113
reacted_atom_IDs: 144 67
reacted_atom_IDs: 174 179
reacted_atom_IDs: 101 63
reacted_atom_IDs: 104 113
reacted_atom_IDs: 144 67
136,136,136,136,
  - [2360000, 0.546666588149401, 2.68344869859886, 136, 136, 136, 136, ]
reacted_atom_IDs: 2 22
reacted_atom_IDs: 9 51
reacted_atom_IDs: 64 101
reacted_atom_IDs: 160 106
reacted_atom_IDs: 2 22
reacted_atom_IDs: 9 51
reacted_atom_IDs: 64 101
reacted_atom_IDs: 160 106
reacted_atom_IDs: 2 22
reacted_atom_IDs: 9 51
reacted_atom_IDs: 64 101
reacted_atom_IDs: 160 106
reacted_atom_IDs: 2 22
reacted_atom_IDs: 9 51
reacted_atom_IDs: 64 101
reacted_atom_IDs: 160 106
reacted_atom_IDs: 2 22
reacted_atom_IDs: 9 51
reacted_atom_IDs: 64 101
reacted_atom_IDs: 160 106
reacted_atom_IDs: 2 22
reacted_atom_IDs: 9 51
reacted_atom_IDs: 64 101
reacted_atom_IDs: 160 106
reacted_atom_IDs: 2 22
reacted_atom_IDs: 9 51
reacted_atom_IDs: 64 101
reacted_atom_IDs: 160 106
reacted_atom_IDs: 2 22
reacted_atom_IDs: 9 51
reacted_atom_IDs: 64 101
reacted_atom_IDs: 160 106
reacted_atom_IDs: 2 22
reacted_atom_IDs: 9 51
reacted_atom_IDs: 64 101
reacted_atom_IDs: 160 106
reacted_atom_IDs: 2 22
reacted_atom_IDs: 9 51
reacted_atom_IDs: 64 101
reacted_atom_IDs: 160 106
137,137,137,137,
  - [2370000, 0.564015811986315, 2.67405089283755, 137, 137, 137, 137, ]
reacted_atom_IDs: 122 43
reacted_atom_IDs: 60 71
reacted_atom_IDs: 144 68
reacted_atom_IDs: 91 95
reacted_atom_IDs: 122 43
reacted_atom_IDs: 60 71
reacted_atom_IDs: 144 68
reacted_atom_IDs: 91 95
reacted_atom_IDs: 122 43
reacted_atom_IDs: 60 71
reacted_atom_IDs: 144 68
reacted_atom_IDs: 91 95
reacted_atom_IDs: 122 43
reacted_atom_IDs: 60 71
reacted_atom_IDs: 144 68
reacted_atom_IDs: 91 95
reacted_atom_IDs: 122 43
reacted_atom_IDs: 60 71
reacted_atom_IDs: 144 68
reacted_atom_IDs: 91 95
reacted_atom_IDs: 122 43
reacted_atom_IDs: 60 71
reacted_atom_IDs: 144 68
reacted_atom_IDs: 91 95
reacted_atom_IDs: 122 43
reacted_atom_IDs: 60 71
reacted_atom_IDs: 144 68
reacted_atom_IDs: 91 95
reacted_atom_IDs: 122 43
reacted_atom_IDs: 60 71
reacted_atom_IDs: 144 68
reacted_atom_IDs: 91 95
reacted_atom_IDs: 122 43
reacted_atom_IDs: 60 71
reacted_atom_IDs: 144 68
reacted_atom_IDs: 91 95
reacted_atom_IDs: 122 43
reacted_atom_IDs: 60 71
reacted_atom_IDs: 144 68
reacted_atom_IDs: 91 95
138,138,138,138,
  - [2380000, 0.569047372763391, 2.72607112631051, 138, 138, 138, 138, ]
reacted_atom_IDs: 46 51
reacted_atom_IDs: 122 118
reacted_atom_IDs: 2 34
reacted_atom_IDs: 62 121
reacted_atom_IDs: 46 51
reacted_atom_IDs: 122 118
reacted_atom_IDs: 2 34
reacted_atom_IDs: 62 121
reacted_atom_IDs: 46 51
reacted_atom_IDs: 122 118
reacted_atom_IDs: 2 34
reacted_atom_IDs: 62 121
reacted_atom_IDs: 46 51
reacted_atom_IDs: 122 118
reacted_atom_IDs: 2 34
reacted_atom_IDs: 62 121
reacted_atom_IDs: 46 51
reacted_atom_IDs: 122 118
reacted_atom_IDs: 2 34
reacted_atom_IDs: 62 121
reacted_atom_IDs: 46 51
reacted_atom_IDs: 122 118
reacted_atom_IDs: 2 34
reacted_atom_IDs: 62 121
reacted_atom_IDs: 46 51
reacted_atom_IDs: 122 118
reacted_atom_IDs: 2 34
reacted_atom_IDs: 62 121
reacted_atom_IDs: 46 51
reacted_atom_IDs: 122 118
reacted_atom_IDs: 2 34
reacted_atom_IDs: 62 121
reacted_atom_IDs: 46 51
reacted_atom_IDs: 122 118
reacted_atom_IDs: 2 34
reacted_atom_IDs: 62 121
reacted_atom_IDs: 46 51
reacted_atom_IDs: 122 118
reacted_atom_IDs: 2 34
reacted_atom_IDs: 62 121
139,139,139,139,
  - [2390000, 0.541212839451918, 2.66987378459296, 139, 139, 139, 139, ]
reacted_atom_IDs: 18 2
reacted_atom_IDs: 100 62
reacted_atom_IDs: 1 34
reacted_atom_IDs: 23 49
reacted_atom_IDs: 18 2
reacted_atom_IDs: 100 62
reacted_atom_IDs: 1 34
reacted_atom_IDs: 23 49
reacted_atom_IDs: 18 2
reacted_atom_IDs: 100 62
reacted_atom_IDs: 1 34
reacted_atom_IDs: 23 49
reacted_atom_IDs: 18 2
reacted_atom_IDs: 100 62
reacted_atom_IDs: 1 34
reacted_atom_IDs: 23 49
reacted_atom_IDs: 18 2
reacted_atom_IDs: 100 62
reacted_atom_IDs: 1 34
reacted_atom_IDs: 23 49
reacted_atom_IDs: 18 2
reacted_atom_IDs: 100 62
reacted_atom_IDs: 1 34
reacted_atom_IDs: 23 49
reacted_atom_IDs: 18 2
reacted_atom_IDs: 100 62
reacted_atom_IDs: 1 34
reacted_atom_IDs: 23 49
reacted_atom_IDs: 18 2
reacted_atom_IDs: 100 62
reacted_atom_IDs: 1 34
reacted_atom_IDs: 23 49
reacted_atom_IDs: 18 2
reacted_atom_IDs: 100 62
reacted_atom_IDs: 1 34
reacted_atom_IDs: 23 49
reacted_atom_IDs: 18 2
reacted_atom_IDs: 100 62
reacted_atom_IDs: 1 34
reacted_atom_IDs: 23 49
140,140,140,140,
  - [2400000, 0.533750243549364, 2.69695790370107, 140, 140, 140, 140, ]
reacted_atom_IDs: 122 100
reacted_atom_IDs: 17 182
reacted_atom_IDs: 138 77
reacted_atom_IDs: 149 71
reacted_atom_IDs: 122 100
reacted_atom_IDs: 17 182
reacted_atom_IDs: 138 77
reacted_atom_IDs: 149 71
reacted_atom_IDs: 122 100
reacted_atom_IDs: 17 182
reacted_atom_IDs: 138 77
reacted_atom_IDs: 149 71
reacted_atom_IDs: 122 100
reacted_atom_IDs: 17 182
reacted_atom_IDs: 138 77
reacted_atom_IDs: 149 71
reacted_atom_IDs: 122 100
reacted_atom_IDs: 17 182
reacted_atom_IDs: 138 77
reacted_atom_IDs: 149 71
reacted_atom_IDs: 122 100
reacted_atom_IDs: 17 182
reacted_atom_IDs: 138 77
reacted_atom_IDs: 149 71
reacted_atom_IDs: 122 100
reacted_atom_IDs: 17 182
reacted_atom_IDs: 138 77
reacted_atom_IDs: 149 71
reacted_atom_IDs: 122 100
reacted_atom_IDs: 17 182
reacted_atom_IDs: 138 77
reacted_atom_IDs: 149 71
reacted_atom_IDs: 122 100
reacted_atom_IDs: 17 182
reacted_atom_IDs: 138 77
reacted_atom_IDs: 149 71
reacted_atom_IDs: 122 100
reacted_atom_IDs: 17 182
reacted_atom_IDs: 138 77
reacted_atom_IDs: 149 71
141,141,141,141,
  - [2410000, 0.538560689411342, 2.64896402615005, 141, 141, 141, 141, ]
reacted_atom_IDs: 139 135
reacted_atom_IDs: 200 45
reacted_atom_IDs: 71 11
reacted_atom_IDs: 193 94
reacted_atom_IDs: 139 135
reacted_atom_IDs: 200 45
reacted_atom_IDs: 71 11
reacted_atom_IDs: 193 94
reacted_atom_IDs: 139 135
reacted_atom_IDs: 200 45
reacted_atom_IDs: 71 11
reacted_atom_IDs: 193 94
reacted_atom_IDs: 139 135
reacted_atom_IDs: 200 45
reacted_atom_IDs: 71 11
reacted_atom_IDs: 193 94
reacted_atom_IDs: 139 135
reacted_atom_IDs: 200 45
reacted_atom_IDs: 71 11
reacted_atom_IDs: 193 94
reacted_atom_IDs: 139 135
reacted_atom_IDs: 200 45
reacted_atom_IDs: 71 11
reacted_atom_IDs: 193 94
reacted_atom_IDs: 139 135
reacted_atom_IDs: 200 45
reacted_atom_IDs: 71 11
reacted_atom_IDs: 193 94
reacted_atom_IDs: 139 135
reacted_atom_IDs: 200 45
reacted_atom_IDs: 71 11
reacted_atom_IDs: 193 94
reacted_atom_IDs: 139 135
reacted_atom_IDs: 200 45
reacted_atom_IDs: 71 11
reacted_atom_IDs: 193 94
reacted_atom_IDs: 139 135
reacted_atom_IDs: 200 45
reacted_atom_IDs: 71 11
reacted_atom_IDs: 193 94
142,142,142,142,
  - [2420000, 0.548395359186162, 2.64848793057104, 142, 142, 142, 142, ]
reacted_atom_IDs: 32 28
reacted_atom_IDs: 71 152
reacted_atom_IDs: 174 178
reacted_atom_IDs: 18 182
reacted_atom_IDs: 32 28
reacted_atom_IDs: 71 152
reacted_atom_IDs: 174 178
reacted_atom_IDs: 18 182
reacted_atom_IDs: 32 28
reacted_atom_IDs: 71 152
reacted_atom_IDs: 174 178
reacted_atom_IDs: 18 182
reacted_atom_IDs: 32 28
reacted_atom_IDs: 71 152
reacted_atom_IDs: 174 178
reacted_atom_IDs: 18 182
reacted_atom_IDs: 32 28
reacted_atom_IDs: 71 152
reacted_atom_IDs: 174 178
reacted_atom_IDs: 18 182
reacted_atom_IDs: 32 28
reacted_atom_IDs: 71 152
reacted_atom_IDs: 174 178
reacted_atom_IDs: 18 182
reacted_atom_IDs: 32 28
reacted_atom_IDs: 71 152
reacted_atom_IDs: 174 178
reacted_atom_IDs: 18 182
reacted_atom_IDs: 32 28
reacted_atom_IDs: 71 152
reacted_atom_IDs: 174 178
reacted_atom_IDs: 18 182
reacted_atom_IDs: 32 28
reacted_atom_IDs: 71 152
reacted_atom_IDs: 174 178
reacted_atom_IDs: 18 182
reacted_atom_IDs: 32 28
reacted_atom_IDs: 71 152
reacted_atom_IDs: 174 178
reacted_atom_IDs: 18 182
143,143,143,143,
  - [2430000, 0.56885522538475, 2.6382885023123, 143, 143, 143, 143, ]
reacted_atom_IDs: 25 44
reacted_atom_IDs: 140 165
reacted_atom_IDs: 55 169
reacted_atom_IDs: 147 68
reacted_atom_IDs: 25 44
reacted_atom_IDs: 140 165
reacted_atom_IDs: 55 169
reacted_atom_IDs: 147 68
reacted_atom_IDs: 25 44
reacted_atom_IDs: 140 165
reacted_atom_IDs: 55 169
reacted_atom_IDs: 147 68
reacted_atom_IDs: 25 44
reacted_atom_IDs: 140 165
reacted_atom_IDs: 55 169
reacted_atom_IDs: 147 68
reacted_atom_IDs: 25 44
reacted_atom_IDs: 140 165
reacted_atom_IDs: 55 169
reacted_atom_IDs: 147 68
reacted_atom_IDs: 25 44
reacted_atom_IDs: 140 165
reacted_atom_IDs: 55 169
reacted_atom_IDs: 147 68
reacted_atom_IDs: 25 44
reacted_atom_IDs: 140 165
reacted_atom_IDs: 55 169
reacted_atom_IDs: 147 68
reacted_atom_IDs: 25 44
reacted_atom_IDs: 140 165
reacted_atom_IDs: 55 169
reacted_atom_IDs: 147 68
reacted_atom_IDs: 25 44
reacted_atom_IDs: 140 165
reacted_atom_IDs: 55 169
reacted_atom_IDs: 147 68
reacted_atom_IDs: 25 44
reacted_atom_IDs: 140 165
reacted_atom_IDs: 55 169
reacted_atom_IDs: 147 68
144,144,144,144,
  - [2440000, 0.561777119981226, 2.62507354532066, 144, 144, 144, 144, ]
reacted_atom_IDs: 153 72
reacted_atom_IDs: 69 73
reacted_atom_IDs: 61 65
reacted_atom_IDs: 39 171
reacted_atom_IDs: 153 72
reacted_atom_IDs: 69 73
reacted_atom_IDs: 61 65
reacted_atom_IDs: 39 171
145,145,145,145,
  - [2450000, 0.5500397370095, 2.64256884408597, 145, 145, 145, 145, ]
reacted_atom_IDs: 153 72
reacted_atom_IDs: 69 73
reacted_atom_IDs: 61 65
reacted_atom_IDs: 39 171
reacted_atom_IDs: 153 72
reacted_atom_IDs: 69 73
reacted_atom_IDs: 61 65
reacted_atom_IDs: 39 171
reacted_atom_IDs: 153 72
reacted_atom_IDs: 69 73
reacted_atom_IDs: 61 65
reacted_atom_IDs: 39 171
reacted_atom_IDs: 153 72
reacted_atom_IDs: 69 73
reacted_atom_IDs: 61 65
reacted_atom_IDs: 39 171
reacted_atom_IDs: 153 72
reacted_atom_IDs: 69 73
reacted_atom_IDs: 61 65
reacted_atom_IDs: 39 171
reacted_atom_IDs: 153 72
reacted_atom_IDs: 69 73
reacted_atom_IDs: 61 65
reacted_atom_IDs: 39 171
reacted_atom_IDs: 153 72
reacted_atom_IDs: 69 73
reacted_atom_IDs: 61 65
reacted_atom_IDs: 39 171
reacted_atom_IDs: 153 72
reacted_atom_IDs: 69 73
reacted_atom_IDs: 61 65
reacted_atom_IDs: 39 171
