# Initialisation file of the particles

200  atoms
199  bonds
0  angles
0  dihedrals

3  atom types
2  bond types
0  angle types
0  dihedral types

0.0000   300.5000 xlo xhi 
0.0000   358.5000 ylo yhi 
0.0000   358.5000 zlo zhi

Atom Type Labels

1    A
2    U
3    M

Bond Type Labels

1    Normal
2    MM

Masses

1    1.00 
2    1.00 
3    1.00 

Atoms

  1  1  U  0.0  0.0  0.0
  2  1  M  1.5  1.5  1.5
  3  1  A  3.0  3.0  3.0
  4  1  A  4.5  4.5  4.5
  5  1  U  6.0  6.0  6.0
  6  1  M  7.5  7.5  7.5
  7  1  U  9.0  9.0  9.0
  8  1  M  10.5  10.5  10.5
  9  1  U  12.0  12.0  12.0
  10  1  A  13.5  13.5  13.5
  11  1  U  15.0  15.0  15.0
  12  1  M  16.5  16.5  16.5
  13  1  A  18.0  18.0  18.0
  14  1  A  19.5  19.5  19.5
  15  1  M  21.0  21.0  21.0
  16  1  M  22.5  22.5  22.5
  17  1  M  24.0  24.0  24.0
  18  1  U  25.5  25.5  25.5
  19  1  A  27.0  27.0  27.0
  20  1  M  28.5  28.5  28.5
  21  1  M  30.0  30.0  30.0
  22  1  A  31.5  31.5  31.5
  23  1  A  33.0  33.0  33.0
  24  1  M  34.5  34.5  34.5
  25  1  A  36.0  36.0  36.0
  26  1  U  37.5  37.5  37.5
  27  1  M  39.0  39.0  39.0
  28  1  U  40.5  40.5  40.5
  29  1  M  42.0  42.0  42.0
  30  1  M  43.5  43.5  43.5
  31  1  M  45.0  45.0  45.0
  32  1  M  46.5  46.5  46.5
  33  1  U  48.0  48.0  48.0
  34  1  U  49.5  49.5  49.5
  35  1  A  51.0  51.0  51.0
  36  1  M  52.5  52.5  52.5
  37  1  U  54.0  54.0  54.0
  38  1  M  55.5  55.5  55.5
  39  1  A  57.0  57.0  57.0
  40  1  A  58.5  58.5  58.5
  41  1  A  60.0  60.0  60.0
  42  1  A  61.5  61.5  61.5
  43  1  M  63.0  63.0  63.0
  44  1  A  64.5  64.5  64.5
  45  1  A  66.0  66.0  66.0
  46  1  A  67.5  67.5  67.5
  47  1  A  69.0  69.0  69.0
  48  1  A  70.5  70.5  70.5
  49  1  U  72.0  72.0  72.0
  50  1  M  73.5  73.5  73.5
  51  1  U  75.0  75.0  75.0
  52  1  M  76.5  76.5  76.5
  53  1  M  78.0  78.0  78.0
  54  1  M  79.5  79.5  79.5
  55  1  U  81.0  81.0  81.0
  56  1  A  82.5  82.5  82.5
  57  1  M  84.0  84.0  84.0
  58  1  U  85.5  85.5  85.5
  59  1  U  87.0  87.0  87.0
  60  1  U  88.5  88.5  88.5
  61  1  U  90.0  90.0  90.0
  62  1  U  91.5  91.5  91.5
  63  1  A  93.0  93.0  93.0
  64  1  U  94.5  94.5  94.5
  65  1  A  96.0  96.0  96.0
  66  1  U  97.5  97.5  97.5
  67  1  A  99.0  99.0  99.0
  68  1  M  100.5  100.5  100.5
  69  1  U  102.0  102.0  102.0
  70  1  A  103.5  103.5  103.5
  71  1  U  105.0  105.0  105.0
  72  1  U  106.5  106.5  106.5
  73  1  U  108.0  108.0  108.0
  74  1  U  109.5  109.5  109.5
  75  1  U  111.0  111.0  111.0
  76  1  M  112.5  112.5  112.5
  77  1  M  114.0  114.0  114.0
  78  1  M  115.5  115.5  115.5
  79  1  M  117.0  117.0  117.0
  80  1  M  118.5  118.5  118.5
  81  1  M  120.0  120.0  120.0
  82  1  A  121.5  121.5  121.5
  83  1  U  123.0  123.0  123.0
  84  1  M  124.5  124.5  124.5
  85  1  A  126.0  126.0  126.0
  86  1  M  127.5  127.5  127.5
  87  1  A  129.0  129.0  129.0
  88  1  M  130.5  130.5  130.5
  89  1  M  132.0  132.0  132.0
  90  1  A  133.5  133.5  133.5
  91  1  A  135.0  135.0  135.0
  92  1  U  136.5  136.5  136.5
  93  1  M  138.0  138.0  138.0
  94  1  A  139.5  139.5  139.5
  95  1  M  141.0  141.0  141.0
  96  1  U  142.5  142.5  142.5
  97  1  M  144.0  144.0  144.0
  98  1  M  145.5  145.5  145.5
  99  1  U  147.0  147.0  147.0
  100  1  A  148.5  148.5  148.5
  101  1  M  150.0  150.0  150.0
  102  1  M  151.5  151.5  151.5
  103  1  A  153.0  153.0  153.0
  104  1  M  154.5  154.5  154.5
  105  1  A  156.0  156.0  156.0
  106  1  A  157.5  157.5  157.5
  107  1  U  159.0  159.0  159.0
  108  1  A  160.5  160.5  160.5
  109  1  A  162.0  162.0  162.0
  110  1  M  163.5  163.5  163.5
  111  1  A  165.0  165.0  165.0
  112  1  A  166.5  166.5  166.5
  113  1  U  168.0  168.0  168.0
  114  1  M  169.5  169.5  169.5
  115  1  A  171.0  171.0  171.0
  116  1  M  172.5  172.5  172.5
  117  1  U  174.0  174.0  174.0
  118  1  U  175.5  175.5  175.5
  119  1  U  177.0  177.0  177.0
  120  1  M  178.5  178.5  178.5
  121  1  A  180.0  180.0  180.0
  122  1  U  181.5  181.5  181.5
  123  1  M  183.0  183.0  183.0
  124  1  A  184.5  184.5  184.5
  125  1  A  186.0  186.0  186.0
  126  1  U  187.5  187.5  187.5
  127  1  M  189.0  189.0  189.0
  128  1  M  190.5  190.5  190.5
  129  1  U  192.0  192.0  192.0
  130  1  U  193.5  193.5  193.5
  131  1  M  195.0  195.0  195.0
  132  1  U  196.5  196.5  196.5
  133  1  A  198.0  198.0  198.0
  134  1  A  199.5  199.5  199.5
  135  1  M  201.0  201.0  201.0
  136  1  M  202.5  202.5  202.5
  137  1  A  204.0  204.0  204.0
  138  1  U  205.5  205.5  205.5
  139  1  M  207.0  207.0  207.0
  140  1  M  208.5  208.5  208.5
  141  1  A  210.0  210.0  210.0
  142  1  A  211.5  211.5  211.5
  143  1  U  213.0  213.0  213.0
  144  1  U  214.5  214.5  214.5
  145  1  A  216.0  216.0  216.0
  146  1  M  217.5  217.5  217.5
  147  1  M  219.0  219.0  219.0
  148  1  U  220.5  220.5  220.5
  149  1  M  222.0  222.0  222.0
  150  1  M  223.5  223.5  223.5
  151  1  M  225.0  225.0  225.0
  152  1  U  226.5  226.5  226.5
  153  1  A  228.0  228.0  228.0
  154  1  M  229.5  229.5  229.5
  155  1  M  231.0  231.0  231.0
  156  1  M  232.5  232.5  232.5
  157  1  U  234.0  234.0  234.0
  158  1  M  235.5  235.5  235.5
  159  1  A  237.0  237.0  237.0
  160  1  A  238.5  238.5  238.5
  161  1  U  240.0  240.0  240.0
  162  1  M  241.5  241.5  241.5
  163  1  M  243.0  243.0  243.0
  164  1  U  244.5  244.5  244.5
  165  1  A  246.0  246.0  246.0
  166  1  U  247.5  247.5  247.5
  167  1  A  249.0  249.0  249.0
  168  1  A  250.5  250.5  250.5
  169  1  M  252.0  252.0  252.0
  170  1  A  253.5  253.5  253.5
  171  1  U  255.0  255.0  255.0
  172  1  M  256.5  256.5  256.5
  173  1  M  258.0  258.0  258.0
  174  1  A  259.5  259.5  259.5
  175  1  U  261.0  261.0  261.0
  176  1  U  262.5  262.5  262.5
  177  1  M  264.0  264.0  264.0
  178  1  M  265.5  265.5  265.5
  179  1  A  267.0  267.0  267.0
  180  1  M  268.5  268.5  268.5
  181  1  A  270.0  270.0  270.0
  182  1  U  271.5  271.5  271.5
  183  1  M  273.0  273.0  273.0
  184  1  M  274.5  274.5  274.5
  185  1  U  276.0  276.0  276.0
  186  1  A  277.5  277.5  277.5
  187  1  U  279.0  279.0  279.0
  188  1  U  280.5  280.5  280.5
  189  1  M  282.0  282.0  282.0
  190  1  M  283.5  283.5  283.5
  191  1  U  285.0  285.0  285.0
  192  1  A  286.5  286.5  286.5
  193  1  U  288.0  288.0  288.0
  194  1  U  289.5  289.5  289.5
  195  1  U  291.0  291.0  291.0
  196  1  U  292.5  292.5  292.5
  197  1  U  294.0  294.0  294.0
  198  1  A  295.5  295.5  295.5
  199  1  M  297.0  297.0  297.0
  200  1  U  298.5  298.5  298.5

Bonds

  1  Normal  1  2
  2  Normal  2  3
  3  Normal  3  4
  4  Normal  4  5
  5  Normal  5  6
  6  Normal  6  7
  7  Normal  7  8
  8  Normal  8  9
  9  Normal  9  10
  10  Normal  10  11
  11  Normal  11  12
  12  Normal  12  13
  13  Normal  13  14
  14  Normal  14  15
  15  MM  15  16
  16  MM  16  17
  17  Normal  17  18
  18  Normal  18  19
  19  Normal  19  20
  20  MM  20  21
  21  Normal  21  22
  22  Normal  22  23
  23  Normal  23  24
  24  Normal  24  25
  25  Normal  25  26
  26  Normal  26  27
  27  Normal  27  28
  28  Normal  28  29
  29  MM  29  30
  30  MM  30  31
  31  MM  31  32
  32  Normal  32  33
  33  Normal  33  34
  34  Normal  34  35
  35  Normal  35  36
  36  Normal  36  37
  37  Normal  37  38
  38  Normal  38  39
  39  Normal  39  40
  40  Normal  40  41
  41  Normal  41  42
  42  Normal  42  43
  43  Normal  43  44
  44  Normal  44  45
  45  Normal  45  46
  46  Normal  46  47
  47  Normal  47  48
  48  Normal  48  49
  49  Normal  49  50
  50  Normal  50  51
  51  Normal  51  52
  52  MM  52  53
  53  MM  53  54
  54  Normal  54  55
  55  Normal  55  56
  56  Normal  56  57
  57  Normal  57  58
  58  Normal  58  59
  59  Normal  59  60
  60  Normal  60  61
  61  Normal  61  62
  62  Normal  62  63
  63  Normal  63  64
  64  Normal  64  65
  65  Normal  65  66
  66  Normal  66  67
  67  Normal  67  68
  68  Normal  68  69
  69  Normal  69  70
  70  Normal  70  71
  71  Normal  71  72
  72  Normal  72  73
  73  Normal  73  74
  74  Normal  74  75
  75  Normal  75  76
  76  MM  76  77
  77  MM  77  78
  78  MM  78  79
  79  MM  79  80
  80  MM  80  81
  81  Normal  81  82
  82  Normal  82  83
  83  Normal  83  84
  84  Normal  84  85
  85  Normal  85  86
  86  Normal  86  87
  87  Normal  87  88
  88  MM  88  89
  89  Normal  89  90
  90  Normal  90  91
  91  Normal  91  92
  92  Normal  92  93
  93  Normal  93  94
  94  Normal  94  95
  95  Normal  95  96
  96  Normal  96  97
  97  MM  97  98
  98  Normal  98  99
  99  Normal  99  100
  100  Normal  100  101
  101  MM  101  102
  102  Normal  102  103
  103  Normal  103  104
  104  Normal  104  105
  105  Normal  105  106
  106  Normal  106  107
  107  Normal  107  108
  108  Normal  108  109
  109  Normal  109  110
  110  Normal  110  111
  111  Normal  111  112
  112  Normal  112  113
  113  Normal  113  114
  114  Normal  114  115
  115  Normal  115  116
  116  Normal  116  117
  117  Normal  117  118
  118  Normal  118  119
  119  Normal  119  120
  120  Normal  120  121
  121  Normal  121  122
  122  Normal  122  123
  123  Normal  123  124
  124  Normal  124  125
  125  Normal  125  126
  126  Normal  126  127
  127  MM  127  128
  128  Normal  128  129
  129  Normal  129  130
  130  Normal  130  131
  131  Normal  131  132
  132  Normal  132  133
  133  Normal  133  134
  134  Normal  134  135
  135  MM  135  136
  136  Normal  136  137
  137  Normal  137  138
  138  Normal  138  139
  139  MM  139  140
  140  Normal  140  141
  141  Normal  141  142
  142  Normal  142  143
  143  Normal  143  144
  144  Normal  144  145
  145  Normal  145  146
  146  MM  146  147
  147  Normal  147  148
  148  Normal  148  149
  149  MM  149  150
  150  MM  150  151
  151  Normal  151  152
  152  Normal  152  153
  153  Normal  153  154
  154  MM  154  155
  155  MM  155  156
  156  Normal  156  157
  157  Normal  157  158
  158  Normal  158  159
  159  Normal  159  160
  160  Normal  160  161
  161  Normal  161  162
  162  MM  162  163
  163  Normal  163  164
  164  Normal  164  165
  165  Normal  165  166
  166  Normal  166  167
  167  Normal  167  168
  168  Normal  168  169
  169  Normal  169  170
  170  Normal  170  171
  171  Normal  171  172
  172  MM  172  173
  173  Normal  173  174
  174  Normal  174  175
  175  Normal  175  176
  176  Normal  176  177
  177  MM  177  178
  178  Normal  178  179
  179  Normal  179  180
  180  Normal  180  181
  181  Normal  181  182
  182  Normal  182  183
  183  MM  183  184
  184  Normal  184  185
  185  Normal  185  186
  186  Normal  186  187
  187  Normal  187  188
  188  Normal  188  189
  189  MM  189  190
  190  Normal  190  191
  191  Normal  191  192
  192  Normal  192  193
  193  Normal  193  194
  194  Normal  194  195
  195  Normal  195  196
  196  Normal  196  197
  197  Normal  197  198
  198  Normal  198  199
  199  Normal  199  200
