# Initialisation file of the particles

2210  atoms
229  bonds
0  angles
0  dihedrals

10  atom types
3  bond types
0  angle types
0  dihedral types

0.0000   500.0000 xlo xhi 
0.0000   500.0000 ylo yhi 
0.0000   500.0000 zlo zhi

Atom Type Labels

1    A
2    U
3    M
4    N
5    P
6    PU
7    NA
8    NM
9    NU
10    HP

Bond Type Labels

1    Normal
2    MM
3    PolyPromoter

Masses

1    1.00 
2    1.00 
3    1.00 
4    1.00 
5    1.00 
6    1.00 
7    1.00 
8    1.00 
9    1.00 
10    1.00 

Atoms

  1  1  U  0.0  0.0  0.0
  2  1  A  1.2  1.2  1.2
  3  1  U  2.4  2.4  2.4
  4  1  M  3.5999999999999996  3.5999999999999996  3.5999999999999996
  5  1  U  4.8  4.8  4.8
  6  1  U  6.0  6.0  6.0
  7  1  A  7.199999999999999  7.199999999999999  7.199999999999999
  8  1  U  8.4  8.4  8.4
  9  1  A  9.6  9.6  9.6
  10  1  A  10.799999999999999  10.799999999999999  10.799999999999999
  11  1  U  12.0  12.0  12.0
  12  1  U  13.2  13.2  13.2
  13  1  U  14.399999999999999  14.399999999999999  14.399999999999999
  14  1  M  15.6  15.6  15.6
  15  1  A  16.8  16.8  16.8
  16  1  M  18.0  18.0  18.0
  17  1  A  19.2  19.2  19.2
  18  1  A  20.4  20.4  20.4
  19  1  U  21.599999999999998  21.599999999999998  21.599999999999998
  20  1  A  22.8  22.8  22.8
  21  1  M  24.0  24.0  24.0
  22  1  A  25.2  25.2  25.2
  23  1  A  26.4  26.4  26.4
  24  1  M  27.599999999999998  27.599999999999998  27.599999999999998
  25  1  A  28.799999999999997  28.799999999999997  28.799999999999997
  26  1  A  30.0  30.0  30.0
  27  1  A  31.2  31.2  31.2
  28  1  A  32.4  32.4  32.4
  29  1  A  33.6  33.6  33.6
  30  1  M  34.8  34.8  34.8
  31  1  M  36.0  36.0  36.0
  32  1  U  37.199999999999996  37.199999999999996  37.199999999999996
  33  1  A  38.4  38.4  38.4
  34  1  A  39.6  39.6  39.6
  35  1  M  40.8  40.8  40.8
  36  1  M  42.0  42.0  42.0
  37  1  A  43.199999999999996  43.199999999999996  43.199999999999996
  38  1  M  44.4  44.4  44.4
  39  1  U  45.6  45.6  45.6
  40  1  U  46.8  46.8  46.8
  41  1  M  48.0  48.0  48.0
  42  1  U  49.199999999999996  49.199999999999996  49.199999999999996
  43  1  M  50.4  50.4  50.4
  44  1  M  51.6  51.6  51.6
  45  1  U  52.8  52.8  52.8
  46  1  A  54.0  54.0  54.0
  47  1  U  55.199999999999996  55.199999999999996  55.199999999999996
  48  1  U  56.4  56.4  56.4
  49  1  U  57.599999999999994  57.599999999999994  57.599999999999994
  50  1  A  58.8  58.8  58.8
  51  1  A  60.0  60.0  60.0
  52  1  A  61.199999999999996  61.199999999999996  61.199999999999996
  53  1  M  62.4  62.4  62.4
  54  1  U  63.599999999999994  63.599999999999994  63.599999999999994
  55  1  U  64.8  64.8  64.8
  56  1  U  66.0  66.0  66.0
  57  1  A  67.2  67.2  67.2
  58  1  U  68.39999999999999  68.39999999999999  68.39999999999999
  59  1  A  69.6  69.6  69.6
  60  1  U  70.8  70.8  70.8
  61  1  U  72.0  72.0  72.0
  62  1  M  73.2  73.2  73.2
  63  1  U  74.39999999999999  74.39999999999999  74.39999999999999
  64  1  A  75.6  75.6  75.6
  65  1  A  76.8  76.8  76.8
  66  1  U  78.0  78.0  78.0
  67  1  A  79.2  79.2  79.2
  68  1  M  80.39999999999999  80.39999999999999  80.39999999999999
  69  1  M  81.6  81.6  81.6
  70  1  A  82.8  82.8  82.8
  71  1  A  84.0  84.0  84.0
  72  1  U  85.2  85.2  85.2
  73  1  U  86.39999999999999  86.39999999999999  86.39999999999999
  74  1  A  87.6  87.6  87.6
  75  1  U  88.8  88.8  88.8
  76  1  M  90.0  90.0  90.0
  77  1  U  91.2  91.2  91.2
  78  1  U  92.39999999999999  92.39999999999999  92.39999999999999
  79  1  U  93.6  93.6  93.6
  80  1  U  94.8  94.8  94.8
  81  1  M  96.0  96.0  96.0
  82  1  A  97.2  97.2  97.2
  83  1  A  98.39999999999999  98.39999999999999  98.39999999999999
  84  1  U  99.6  99.6  99.6
  85  1  U  100.8  100.8  100.8
  86  1  M  102.0  102.0  102.0
  87  1  A  103.2  103.2  103.2
  88  1  M  104.39999999999999  104.39999999999999  104.39999999999999
  89  1  U  105.6  105.6  105.6
  90  1  U  106.8  106.8  106.8
  91  1  M  108.0  108.0  108.0
  92  1  M  109.2  109.2  109.2
  93  1  A  110.39999999999999  110.39999999999999  110.39999999999999
  94  1  A  111.6  111.6  111.6
  95  1  A  112.8  112.8  112.8
  96  1  M  114.0  114.0  114.0
  97  1  M  115.19999999999999  115.19999999999999  115.19999999999999
  98  1  M  116.39999999999999  116.39999999999999  116.39999999999999
  99  1  U  117.6  117.6  117.6
  100  1  A  118.8  118.8  118.8
  101  1  U  120.0  120.0  120.0
  102  1  A  121.19999999999999  121.19999999999999  121.19999999999999
  103  1  U  122.39999999999999  122.39999999999999  122.39999999999999
  104  1  M  123.6  123.6  123.6
  105  1  U  124.8  124.8  124.8
  106  1  M  126.0  126.0  126.0
  107  1  M  127.19999999999999  127.19999999999999  127.19999999999999
  108  1  M  128.4  128.4  128.4
  109  1  M  129.6  129.6  129.6
  110  1  M  130.79999999999998  130.79999999999998  130.79999999999998
  111  1  U  132.0  132.0  132.0
  112  1  A  133.2  133.2  133.2
  113  1  A  134.4  134.4  134.4
  114  1  M  135.6  135.6  135.6
  115  1  A  136.79999999999998  136.79999999999998  136.79999999999998
  116  1  M  138.0  138.0  138.0
  117  1  A  139.2  139.2  139.2
  118  1  A  140.4  140.4  140.4
  119  1  M  141.6  141.6  141.6
  120  1  U  142.79999999999998  142.79999999999998  142.79999999999998
  121  1  M  144.0  144.0  144.0
  122  1  M  145.2  145.2  145.2
  123  1  M  146.4  146.4  146.4
  124  1  A  147.6  147.6  147.6
  125  1  M  148.79999999999998  148.79999999999998  148.79999999999998
  126  1  U  150.0  150.0  150.0
  127  1  M  151.2  151.2  151.2
  128  1  A  152.4  152.4  152.4
  129  1  M  153.6  153.6  153.6
  130  1  M  154.79999999999998  154.79999999999998  154.79999999999998
  131  1  M  156.0  156.0  156.0
  132  1  M  157.2  157.2  157.2
  133  1  M  158.4  158.4  158.4
  134  1  M  159.6  159.6  159.6
  135  1  M  160.79999999999998  160.79999999999998  160.79999999999998
  136  1  U  162.0  162.0  162.0
  137  1  U  163.2  163.2  163.2
  138  1  A  164.4  164.4  164.4
  139  1  M  165.6  165.6  165.6
  140  1  M  166.79999999999998  166.79999999999998  166.79999999999998
  141  1  U  168.0  168.0  168.0
  142  1  U  169.2  169.2  169.2
  143  1  U  170.4  170.4  170.4
  144  1  M  171.6  171.6  171.6
  145  1  A  172.79999999999998  172.79999999999998  172.79999999999998
  146  1  A  174.0  174.0  174.0
  147  1  U  175.2  175.2  175.2
  148  1  A  176.4  176.4  176.4
  149  1  U  177.6  177.6  177.6
  150  1  U  178.79999999999998  178.79999999999998  178.79999999999998
  151  1  A  180.0  180.0  180.0
  152  1  M  181.2  181.2  181.2
  153  1  M  182.4  182.4  182.4
  154  1  U  183.6  183.6  183.6
  155  1  M  184.79999999999998  184.79999999999998  184.79999999999998
  156  1  U  186.0  186.0  186.0
  157  1  U  187.2  187.2  187.2
  158  1  A  188.4  188.4  188.4
  159  1  U  189.6  189.6  189.6
  160  1  M  190.79999999999998  190.79999999999998  190.79999999999998
  161  1  U  192.0  192.0  192.0
  162  1  A  193.2  193.2  193.2
  163  1  M  194.4  194.4  194.4
  164  1  U  195.6  195.6  195.6
  165  1  A  196.79999999999998  196.79999999999998  196.79999999999998
  166  1  U  198.0  198.0  198.0
  167  1  U  199.2  199.2  199.2
  168  1  A  200.4  200.4  200.4
  169  1  M  201.6  201.6  201.6
  170  1  A  202.79999999999998  202.79999999999998  202.79999999999998
  171  1  A  204.0  204.0  204.0
  172  1  A  205.2  205.2  205.2
  173  1  A  206.4  206.4  206.4
  174  1  M  207.6  207.6  207.6
  175  1  A  208.79999999999998  208.79999999999998  208.79999999999998
  176  1  M  210.0  210.0  210.0
  177  1  U  211.2  211.2  211.2
  178  1  M  212.4  212.4  212.4
  179  1  U  213.6  213.6  213.6
  180  1  M  214.79999999999998  214.79999999999998  214.79999999999998
  181  1  U  216.0  216.0  216.0
  182  1  A  217.2  217.2  217.2
  183  1  M  218.4  218.4  218.4
  184  1  A  219.6  219.6  219.6
  185  1  M  220.79999999999998  220.79999999999998  220.79999999999998
  186  1  M  222.0  222.0  222.0
  187  1  A  223.2  223.2  223.2
  188  1  U  224.4  224.4  224.4
  189  1  A  225.6  225.6  225.6
  190  1  M  226.79999999999998  226.79999999999998  226.79999999999998
  191  1  M  228.0  228.0  228.0
  192  1  U  229.2  229.2  229.2
  193  1  A  230.39999999999998  230.39999999999998  230.39999999999998
  194  1  U  231.6  231.6  231.6
  195  1  A  232.79999999999998  232.79999999999998  232.79999999999998
  196  1  A  234.0  234.0  234.0
  197  1  U  235.2  235.2  235.2
  198  1  U  236.39999999999998  236.39999999999998  236.39999999999998
  199  1  U  237.6  237.6  237.6
  200  1  U  238.79999999999998  238.79999999999998  238.79999999999998
  1201  1002  P  120.29036432038893  115.39406521563468  102.49572286804273
  1202  1003  P  121.41873001758434  117.07561378947788  114.73932074894059
  1203  1004  P  116.40704010483715  119.03770795898865  124.62661491901261
  1204  1005  P  111.77703268712808  126.02539522695523  108.99332815726885
  1205  1006  P  120.55576780235835  101.2086034644052  103.59975484139392
  1206  1007  P  118.35106462314278  115.58368506555023  110.34567792094589
  1207  1008  P  111.866681730404  126.83052286854137  100.8637713913769
  1208  1009  P  125.51773451961961  103.39103584947294  119.52122967061541
  1209  1010  P  109.3716364744506  114.10592665568461  122.91759730966311
  1210  1011  P  125.9466424052556  107.64582660657825  129.13254341321752
  211  2  N  58.11517039301944  59.237276328414154  18.857770503466327
  212  3  N  5.209109806134407  130.46632085346943  109.30002311330291
  213  4  N  139.29705808982766  12.958917391631843  70.34209778409907
  214  5  N  9.612098279845398  75.16368584160611  65.16919866478472
  215  6  N  178.5304338757575  42.36115670778385  77.40055975868805
  216  7  N  75.92736962554746  187.63175522008063  141.7274962572984
  217  8  N  99.83206233152086  79.59705979737487  197.89633204583106
  218  9  N  26.323339375236372  61.53098632628358  155.60471802063944
  219  10  N  72.15824172248195  189.0348028341865  63.97722414508024
  220  11  N  145.9982389338516  127.65688614803408  15.62430051502399
  221  12  N  113.20320928856415  195.23411162605186  127.49798624043342
  222  13  N  171.49907549832847  169.03907139907017  88.97780315733658
  223  14  N  154.56444591945964  73.02852520431796  20.657320508768734
  224  15  N  24.309561733457855  165.2300386591133  96.00004855662506
  225  16  N  112.17581207667814  189.50597738250445  142.90022859002065
  226  17  N  32.36814170330571  153.19352393065083  49.04530683857333
  227  18  N  13.588659439344013  146.99414086945092  81.98248223387769
  228  19  N  153.7544276055139  88.71410730434711  16.435114199409256
  229  20  N  116.79076129884352  166.12126603763812  26.883322609782496
  230  21  N  101.40948505050743  130.54035444845073  195.2118695439565
  231  22  N  40.50778746871048  47.20933683582729  160.61206588476205
  232  23  N  31.270940122516762  109.76715111313116  171.97860159443627
  233  24  N  101.52518485079416  110.55932005707233  199.42924404370788
  234  25  N  19.83586179701834  159.66923131702066  96.3539363404984
  235  26  N  119.68614045707285  195.69944503344064  78.69103254036287
  236  27  N  154.93842847824573  99.3300838088734  183.55429545294214
  237  28  N  74.0754910197171  196.48190076811986  104.37751736740185
  238  29  N  187.15988632463475  50.97813491093145  99.89531444267601
  239  30  N  96.15314355371324  199.51959237707007  90.99708777208855
  240  31  N  123.21050598322714  10.072221128932654  62.928892661278795
  241  32  N  87.30245069328609  53.44401052139995  12.413973230474426
  242  33  N  73.91314005551821  173.92627280820022  162.08366876179713
  243  34  N  144.1663274574328  182.06865019288284  63.74986655967943
  244  35  N  9.743517847754546  134.61210996203545  74.39200762501355
  245  36  N  155.74206932930252  158.56491245315473  158.84702827026655
  246  37  N  16.670913434329222  86.68661911237092  46.34352581960067
  247  38  N  34.478503861421075  31.001230327742718  69.2412073143796
  248  39  N  195.97632075660906  76.05485931703483  85.3311182533399
  249  40  N  53.13322740223773  179.0399944456201  139.4485095321228
  250  41  N  158.37291915570063  176.82116537804234  73.71101258698798
  251  42  N  10.503061377310104  128.07196668894892  134.67365950373593
  252  43  N  97.08603797910887  132.67070582957916  5.532366357900614
  253  44  N  22.33257974933771  150.5740869455505  137.55041359600332
  254  45  N  44.21113851524826  17.547865342336507  109.44713843604036
  255  46  N  157.40175455162975  102.43974373017826  18.152054241260842
  256  47  N  78.07234561735811  161.38811340900534  175.83322164697017
  257  48  N  156.0043660702405  50.351498753636136  166.32146941270452
  258  49  N  195.0995000870944  89.97978550648531  129.25201505347434
  259  50  N  165.41575161853302  142.5319999298423  37.45554843033402
  260  51  N  188.38675081522757  128.1342337407705  137.36639094355462
  261  52  N  139.01642261076617  47.007190919601534  175.29595575080066
  262  53  N  98.02765940340021  169.65697173964605  28.278203029809987
  263  54  N  34.13832441052729  161.26483694622164  56.30950397969905
  264  55  N  125.20461292214044  4.476286689723324  84.50975523559616
  265  56  N  83.46844751794298  182.74099802892647  46.328452437905376
  266  57  N  55.958444469953754  131.84291950490268  16.057341810625616
  267  58  N  100.8354508680287  141.2110749705938  8.89045427829636
  268  59  N  116.50318567015356  54.01396471844766  12.747897321495671
  269  60  N  167.6695199933925  162.73282000585618  61.45873175443357
  270  61  N  174.41449727471718  157.7958666429502  66.50193446866783
  271  62  N  99.20341048447675  35.79234858532513  176.65991745987833
  272  63  N  101.23484431516157  9.00698114448106  58.54224223288858
  273  64  N  40.37541374861056  75.70274835928859  176.51504608283636
  274  65  N  160.41006903349844  169.07201113443563  60.25480107972346
  275  66  N  29.658671381720026  45.68090033957485  145.84247921192687
  276  67  N  135.15869559878678  73.90778907764754  189.90585438654884
  277  68  N  1.5706576307844387  98.77180972727434  117.61124951324373
  278  69  N  99.40465602450377  181.0907933955615  158.51434689056353
  279  70  N  27.454320494140987  40.19807172428406  134.07130404811818
  280  71  N  122.63092217678539  162.42355183647973  174.77393621808744
  281  72  N  32.88118032053379  30.015532736228266  124.43846121672476
  282  73  N  140.08889807818795  32.57105180809897  37.98212195978821
  283  74  N  195.5831447428346  70.86456856890929  103.87157285796613
  284  75  N  15.985056990029577  146.90664612881335  127.22601513218017
  285  76  N  115.92752642010186  180.93991446507385  156.52472156962375
  286  77  N  123.61372415518157  32.09237490338553  30.4949894952842
  287  78  N  127.03547014207793  13.818288789001201  57.083849113173976
  288  79  N  150.70990687998906  112.0535524300918  185.34176713683559
  289  80  N  83.64718576378601  157.07684151604235  19.53373608083659
  290  81  N  117.6403739358579  22.14455568334367  160.22746049485346
  291  82  N  59.91732250116072  139.50172687008086  182.66191710095754
  292  83  N  44.890217101086456  181.68214770569222  82.94307838383209
  293  84  N  54.10006706587333  117.7996242685501  187.04234333093933
  294  85  N  2.944772222638335  76.03170927022597  102.40910783849
  295  86  N  143.69094622048758  118.19359452395781  11.908602368583814
  296  87  N  31.00159801656106  98.72304812188474  172.3711953586007
  297  88  N  117.27098426545994  128.38990428876804  194.31715876221477
  298  89  N  43.300565996846615  182.30793724605107  103.25232993747174
  299  90  N  68.26244251293296  78.1652472454246  192.28201892514966
  300  91  N  38.59486830081808  29.080597574114705  65.36117553147253
  301  92  N  36.14497728389198  73.76086236858505  172.34669121863828
  302  93  N  96.67577943468274  10.958998430463922  145.3943784749499
  303  94  N  62.05468686976468  168.2625311552208  37.546977241042214
  304  95  N  51.947697211291995  186.51224017191157  114.37388246577159
  305  96  N  78.12962648528082  29.133129554554017  167.0788598262899
  306  97  N  98.55490354077277  86.67725101097052  0.9019876304330552
  307  98  N  185.35002154981788  138.84585579531375  134.73288512311223
  308  99  N  24.811355452475055  165.87523573982173  102.6685290571514
  309  100  N  184.0537971741566  154.08384804186264  96.85411990208537
  310  101  N  68.12113839089628  125.50083182010006  191.287708696136
  311  102  N  136.7495781892335  151.38595340846032  177.51743220216315
  312  103  N  145.18927239040826  185.62090119962107  125.03978711151952
  313  104  N  15.393543793726067  151.81334963766454  87.4650740911253
  314  105  N  144.1341183683004  57.06315039139826  178.7947113805309
  315  106  N  154.00002604765336  159.1273702161036  159.89950983255696
  316  107  N  163.16361554839318  40.8141493944775  49.92612698267135
  317  108  N  129.86661117937868  4.586651865735249  97.93153813924246
  318  109  N  146.1560831859481  188.53341579506713  94.39194573942072
  319  110  N  173.59874144964346  102.85577150701258  167.63926245996674
  320  111  N  167.08078961523302  168.67784781502758  72.00855694872521
  321  112  N  176.55397797603615  142.24482639022312  51.47306830939671
  322  113  N  14.879411161169656  64.95306309856826  139.0665786774047
  323  114  N  48.680112042800445  177.40203736047238  137.08360436242035
  324  115  N  96.01055171095737  32.5897693693378  173.75598354486223
  325  116  N  12.558986238099422  147.74653202784953  91.3780633495337
  326  117  N  57.023106285860926  188.3022729812184  118.8598831659684
  327  118  N  94.86172755152003  198.78238590838077  114.68463109829196
  328  119  N  25.291390955586763  59.7748600621947  152.92033495390024
  329  120  N  76.14177101827862  122.60058593417952  5.554256711657374
  330  121  N  0.8938102505887429  102.58446202977343  86.9124597662376
  331  122  N  72.77317866766226  3.8276714962425444  96.90428840130062
  332  123  N  31.332689439814388  112.4239380378097  28.37286670497214
  333  124  N  9.410768780775953  67.26694305344995  126.8726286403819
  334  125  N  32.96272231246829  131.0820356808611  32.621142350300715
  335  126  N  124.84802628968748  173.13294967389163  163.5149373100772
  336  127  N  8.08158930458319  136.93731458066503  113.66164583048742
  337  128  N  35.78854701734707  148.23520170202923  40.4159868536777
  338  129  N  17.811738388831117  49.39024795543487  126.14847321205768
  339  130  N  120.70962343018478  193.5972749129911  128.47212015712742
  340  131  N  110.83601604977858  180.57665953707982  41.77644210446714
  341  132  N  6.238642287306433  66.02128127655624  107.36576362540993
  342  133  N  85.29794339679708  94.98767186927937  1.213735274856134
  343  134  N  183.1870296465337  110.09062233149501  45.42805263187084
  344  135  N  77.63907442059312  13.35960558244102  144.6478561904381
  345  136  N  91.51577873898407  185.7819166833741  150.69004596289875
  346  137  N  33.71363339520724  128.53198932526237  30.77541486236173
  347  138  N  105.97395120007917  87.15807959455817  198.99190364549702
  348  139  N  7.152113499972074  86.16659314168957  134.46602424374447
  349  140  N  125.33599292578117  4.886486299869219  117.64956016675204
  350  141  N  193.01917004715358  131.51088470770273  118.82812122004182
  351  142  N  7.333454514849265  107.20716056624862  136.89130228686432
  352  143  N  32.97568328463876  49.438204226728516  154.32536955254824
  353  144  N  56.48301339487901  14.661709183552574  128.69926823696323
  354  145  N  141.61720240711767  190.71000630615822  93.69895090149821
  355  146  N  199.7320271817997  101.73231524115549  107.10787156003964
  356  147  N  14.418084118755786  129.03114823116312  57.187290362838816
  357  148  N  42.83091415086119  179.83097993866645  81.06035203056734
  358  149  N  137.93724025742185  169.8128104832076  39.279844416484025
  359  150  N  57.57874307970257  90.12698465756115  9.983554117316515
  360  151  N  47.44188822432073  44.5516682418466  164.52230150740874
  361  152  N  72.28999348297191  138.23420155699483  11.850687069465167
  362  153  N  167.620902608501  128.4405276683581  32.04008595975874
  363  154  N  33.34911902932548  55.269221756842924  159.6390605525815
  364  155  N  68.10542315342319  42.18419316850058  175.1003891348144
  365  156  N  51.62970478092283  67.56789037314739  18.7074861652616
  366  157  N  34.585347821408504  59.377573311353416  163.80236461354258
  367  158  N  37.860050696228846  154.84641018347773  155.95085334926054
  368  159  N  32.52780003856023  68.5713076030116  166.78128125889
  369  160  N  198.86531520903455  108.10231815283159  112.64918531639636
  370  161  N  140.7993116997437  186.41775537440705  70.54855316157969
  371  162  N  180.13156820758712  104.27905281731147  40.32905662234364
  372  163  N  52.947906671340554  156.45639438755364  32.18572387654555
  373  164  N  177.44101628167977  60.12358010441981  149.1198547796305
  374  165  N  95.26106999327075  145.86067440394078  11.262515893186091
  375  166  N  17.21595057796472  45.714757155166694  85.86092044836377
  376  167  N  66.93415872060933  7.315182336342275  117.78130240282374
  377  168  N  106.68477125851545  147.46388074240195  12.236147201183272
  378  169  N  112.2979360766589  155.1253046031454  17.477508758733848
  379  170  N  152.39819652318033  105.41956794602527  14.999663033629162
  380  171  N  34.658006463153484  156.5452677774393  150.32948015436273
  381  172  N  136.9536894641854  188.27294837086075  70.97739810251485
  382  173  N  87.02615360394125  114.67504607618517  198.06284888964484
  383  174  N  89.12742739581536  165.6751895751643  25.377237794135738
  384  175  N  112.18359645388706  28.70734798016791  30.94264886756831
  385  176  N  13.76252665543008  49.41950014189634  102.1705357055269
  386  177  N  154.1746193716661  167.87737050563362  50.424066431623935
  387  178  N  136.94424725389283  40.367418432814695  28.732350884316233
  388  179  N  80.73288966360624  63.56936124452912  8.88695472571662
  389  180  N  39.111012565990784  62.77937372370486  170.05109698542512
  390  181  N  57.886701186696975  134.82500614828268  16.252229821722878
  391  182  N  182.58788865639963  47.64620926696468  120.93612292569193
  392  183  N  54.36408288259445  14.053012138453923  123.03211554287925
  393  184  N  133.20856053902975  48.62406710391657  179.1056573576298
  394  185  N  80.09333280746921  187.8312035772258  56.532721738510766
  395  186  N  73.21157139093118  186.3628228284328  57.29352595025487
  396  187  N  144.18296434229435  13.893076611073852  74.83130105823604
  397  188  N  6.386553353869417  75.26909552247326  124.99809934286029
  398  189  N  106.05712993026957  8.783220359487487  140.53159618152256
  399  190  N  170.48647580616984  36.845599466702325  132.29827273564402
  400  191  N  151.85452971227272  182.82336999218137  78.75389138083725
  401  192  N  76.92032812792479  97.44354262606771  197.2666092344778
  402  193  N  179.15185713544892  123.82492931343936  43.72072979134235
  403  194  N  1.6182291657766825  85.1539835574421  89.96890019441211
  404  195  N  159.17567375088643  132.42068130509813  173.80473602582634
  405  196  N  172.43145231787867  31.855508750066704  89.5112904792518
  406  197  N  83.89658043116918  195.0521448102619  73.43367460187235
  407  198  N  45.57435888807485  142.87243586445683  27.890334679711913
  408  199  N  111.28033095010714  0.6780281258369598  97.18929960970198
  409  200  N  193.13698140709403  63.60427758298362  100.92416671554204
  410  201  N  53.09863108973613  33.74438338978253  41.600900161533225
  411  202  N  5.181225325111711  122.32983933011499  77.39959636103788
  412  203  N  23.085543718102855  70.75011758568337  43.17913417054626
  413  204  N  32.635050276204595  58.93371416652336  38.554709565714376
  414  205  N  136.30649025970177  35.44446078397226  32.81055796071763
  415  206  N  95.26382865760799  197.9606820416618  80.47377519980014
  416  207  N  110.39901695215407  196.2161427004828  74.81440232455985
  417  208  N  96.35668021310528  113.00420596282177  199.08388793445144
  418  209  N  39.33942887488962  108.47962053205681  20.953234434243
  419  210  N  1.4800689075928801  85.39220905392244  108.96859081590017
  420  211  N  78.53000574058004  69.67149106463536  7.160240778759118
  421  212  N  75.26621784321256  186.76300458981774  56.86740148370549
  422  213  N  106.81719332010498  198.44129225499609  83.78772519346015
  423  214  N  52.84027040092799  127.09342610487984  183.91606619737263
  424  215  N  131.52342387314306  138.33704937141007  186.81327313728139
  425  216  N  141.61346874210165  98.56944203015544  190.919044886894
  426  217  N  16.946880314718996  102.7694432829624  44.371684418411114
  427  218  N  154.68505695871187  22.07595614275452  69.38320829419705
  428  219  N  70.45424114896298  12.85165193625285  60.85650036498596
  429  220  N  182.2194224222128  43.414021563338935  106.16389656982157
  430  221  N  145.89361068013653  143.26827120910428  177.59918301963916
  431  222  N  7.298473614885566  76.72290202386736  70.59585546764791
  432  223  N  64.77421917581624  70.54929188377493  188.83580447533237
  433  224  N  34.76813325089313  148.74834207621208  41.96205805468827
  434  225  N  141.33876066804913  94.57619287188325  190.8938346790735
  435  226  N  59.17810837453558  91.04140427665195  190.84776676828358
  436  227  N  75.43831908144182  102.31260496503653  196.90911045268462
  437  228  N  94.89209263528625  0.6715350064469305  89.61899213091495
  438  229  N  132.81223316399962  35.628831382728634  169.1354468101432
  439  230  N  136.85604558275986  48.18379168231844  22.820258748942706
  440  231  N  87.69581904258098  75.80713277321934  196.24610281104606
  441  232  N  22.28052921584964  77.14366327281121  158.62825029322434
  442  233  N  92.67771372715528  187.6298683575592  52.3828781279742
  443  234  N  94.25730594074932  27.43930343148824  31.429111290328066
  444  235  N  149.74332464898401  165.58062242594553  156.78717826315506
  445  236  N  171.69477388845087  62.36564434093343  158.68146786857665
  446  237  N  7.776617772615992  69.4756315838149  123.72995371539591
  447  238  N  122.31539328550011  178.51579249010751  157.76931323950313
  448  239  N  166.8422685293795  29.344862016918526  76.76290434589475
  449  240  N  198.86959920900773  86.06906342478685  105.54358714079311
  450  241  N  72.22486392521373  94.2739681602238  4.105503935851587
  451  242  N  38.5839301795969  171.34776548585558  66.27222616313476
  452  243  N  156.50292857391213  40.86304662674888  42.465316475179
  453  244  N  20.968903307496703  41.052209330677066  116.710587386022
  454  245  N  35.645925499398444  101.18065988542499  23.46792086055696
  455  246  N  8.422288549382131  87.78377316235822  138.26599753460837
  456  247  N  153.85405697057922  148.68552048793424  168.77107417096624
  457  248  N  39.91207963809515  91.1092131220654  179.4379993156457
  458  249  N  138.74181312800178  71.87692277751167  187.7961527807053
  459  250  N  108.16242332764789  11.359841437842704  54.43359641692266
  460  251  N  31.296786304460937  149.10813970266997  153.5561298344843
  461  252  N  195.8919663701534  128.3674023467149  99.85415842511108
  462  253  N  161.433421173995  58.30741261295808  166.99002104666351
  463  254  N  4.541019513536099  124.30376860122439  82.76892701358842
  464  255  N  160.7748232084669  22.817599559724954  118.68951380471478
  465  256  N  70.42964248988237  48.10490219183439  19.797177230444333
  466  257  N  12.460492308758276  89.87898734381194  52.730562770556354
  467  258  N  12.253626552983249  52.04128534439083  100.73187121717582
  468  259  N  192.2090336140156  138.5581031171571  96.71871915617967
  469  260  N  121.46979542812454  87.58430049923665  196.87568472109618
  470  261  N  38.78701151565409  178.1826297394113  88.1489895854634
  471  262  N  189.0596648166477  69.3767811157927  66.37568487067298
  472  263  N  124.14740753199504  103.72691059462508  3.0308665249429936
  473  264  N  171.90370355475855  31.27716269076174  110.34548439065914
  474  265  N  26.483518594677975  118.44147237179678  34.76780657879732
  475  266  N  131.51152254807116  11.298193827471195  133.74927448751356
  476  267  N  16.396046915611947  50.183479266053624  77.00666856178225
  477  268  N  183.60034187913664  80.33824743428445  151.2288817341942
  478  269  N  153.1238747465499  163.94367301423947  44.420681783950414
  479  270  N  122.13402268247013  126.38840899658325  193.8815046242919
  480  271  N  8.549953178738562  102.30630075666281  59.607303714546276
  481  272  N  191.89482039994004  95.65995933905603  60.801708829030424
  482  273  N  122.18647887173267  184.80175186480201  148.12923265474643
  483  274  N  25.007076058201775  142.08276837290583  151.04019949737682
  484  275  N  56.111542963202034  29.636758855493014  155.8821763585591
  485  276  N  73.98518067816859  6.568307531661702  75.63305480462672
  486  277  N  186.8693031860745  102.9153787144606  149.44921365317288
  487  278  N  66.12582036058922  28.852399447528896  161.56751488717845
  488  279  N  132.0813226062256  19.309741237757336  50.40291459452883
  489  280  N  191.93305850836498  75.29012347340378  130.62245508344995
  490  281  N  196.72300081822948  81.48379264005945  117.37271359691579
  491  282  N  96.43965752405435  170.84037196392484  29.50910937243914
  492  283  N  138.04501936314352  62.03131995522367  184.32648360577736
  493  284  N  104.20486359638991  117.90993521358595  1.706799101967846
  494  285  N  167.70068817386743  160.02183837503657  142.59102885427578
  495  286  N  169.4449379614095  159.68962719537126  59.8185490952158
  496  287  N  58.96945921290614  76.88798790853359  188.2175131127745