# Initialisation file of the particles

1000  atoms
0  bonds
0  angles
0  dihedrals

1  atom types
0  bond types
0  angle types
0  dihedral types

0.0000   200.0000 xlo xhi 
0.0000   200.0000 ylo yhi 
0.0000   200.0000 zlo zhi

Atom Type Labels

1    HP

Masses

1    1.00 

Atoms

  1  2  HP  72.97737801296334  139.2465892063346  79.05507608073947
  2  3  HP  67.60879373563793  109.66545175414899  58.696118180421365
  3  4  HP  58.211866144377744  80.59456576145863  98.79413335170457
  4  5  HP  101.93868157427298  112.93910695125291  82.41757321587018
  5  6  HP  93.59108795141074  110.96532191436543  135.5652363349083
  6  7  HP  84.7057013782938  132.94018889695838  89.1396078071863
  7  8  HP  85.69401931154813  147.73474473876448  86.4021437352516
  8  9  HP  118.40244369409479  90.19277158499622  75.90930983882252
  9  10  HP  106.14469220335124  98.4016089299349  119.03833373518704
  10  11  HP  90.45563906888759  60.576198382949826  100.10453133268624
  11  12  HP  78.11716821110738  91.48756519100377  131.38724054854998
  12  13  HP  139.50151249322727  69.727852102981  99.44128753358679
  13  14  HP  100.53945032029513  96.69164179996972  124.50639862109402
  14  15  HP  73.91855895838013  64.8621419198343  74.55002724329965
  15  16  HP  145.62867377868525  126.48820044888805  110.70311208847211
  16  17  HP  63.641202652045294  124.10381718753591  119.17869741992101
  17  18  HP  82.29895017724837  149.29608307185242  147.830607562282
  18  19  HP  111.70952868203497  138.8003085530082  78.16518925026267
  19  20  HP  60.89147809538541  69.8792910624396  50.85551886594652
  20  21  HP  52.460147182906915  146.9242341597221  75.18868901434155
  21  22  HP  60.29361168061027  91.35722391608797  123.51508100333668
  22  23  HP  56.79051203237704  93.13384318237297  53.53573232250849
  23  24  HP  57.01351346394276  81.2196880250095  134.96963445820327
  24  25  HP  60.008444685484584  137.36936089551534  72.7542008068688
  25  26  HP  118.03984436380705  72.19165910792069  68.21758991024518
  26  27  HP  107.50629091120058  90.35333897617426  58.92508791397695
  27  28  HP  53.78095463239245  51.49471732896599  135.60034380873816
  28  29  HP  129.25509565004324  53.56738877078154  102.60055648151247
  29  30  HP  114.83801176428337  93.31574438725707  144.7126199701051
  30  31  HP  148.78336548440086  81.50563086735191  106.45838004952009
  31  32  HP  63.00092977230168  125.54856421625192  107.13662118900105
  32  33  HP  111.00150174302848  111.9421548723866  143.022106364102
  33  34  HP  104.61716737522012  139.71712019062255  139.1570772166584
  34  35  HP  91.56680188745413  100.3664841458817  106.65763957805007
  35  36  HP  104.23468554921257  66.37479768959619  117.83880116985844
  36  37  HP  109.70326255812945  112.44283841976667  102.59879251259503
  37  38  HP  50.453082168717934  141.02117910222665  51.504833150305544
  38  39  HP  78.74907013294057  75.00750817726154  79.63829102022248
  39  40  HP  143.40442468951838  109.55980805480084  103.81184375941547
  40  41  HP  74.92827047251876  99.48589819126883  127.44471112465834
  41  42  HP  139.24213440170917  53.26003883255635  56.4886087167021
  42  43  HP  84.66345370257574  123.07148835070157  84.61530474240178
  43  44  HP  119.15526048712984  117.4914116732512  104.386226147325
  44  45  HP  126.39338755282967  136.69542609077695  89.45871664542497
  45  46  HP  72.58350246904986  109.68635350376306  97.9521764242539
  46  47  HP  131.24858157635208  132.5518752442968  64.69846368871308
  47  48  HP  101.29830848214228  119.4993690008444  59.60926018092676
  48  49  HP  70.36378816858283  144.92635825809927  101.28146639127746
  49  50  HP  118.68416984692405  96.34907196426326  124.10015425586411
  50  51  HP  59.318439948017165  78.2895309494846  132.0961600209502
  51  52  HP  51.73054423946935  138.48225072064122  50.60908949763658
  52  53  HP  138.8245882450891  96.39613695705057  56.105665366467996
  53  54  HP  107.04883188346435  68.80587562166806  68.02374455064752
  54  55  HP  133.3766942406879  101.29722793499121  118.55092813314766
  55  56  HP  89.49797739500991  64.55778296664818  85.85899210119146
  56  57  HP  70.79053412141559  126.65567314322092  100.29787030863207
  57  58  HP  141.6151254160934  77.9474266530612  95.69679589871225
  58  59  HP  97.89824559115968  124.17842194199403  135.87951677489727
  59  60  HP  113.12422895354719  139.8350620474302  77.01828708492073
  60  61  HP  85.44306652924345  124.40043493945556  72.48637693695242
  61  62  HP  106.37202374889918  128.2379393597144  148.2077643971088
  62  63  HP  59.36831848150198  134.38449826807  54.15655568539689
  63  64  HP  109.38142743958797  54.76901645014007  79.92248175426786
  64  65  HP  115.54377387603566  140.82819266382398  143.55538641472918
  65  66  HP  119.59460003048592  114.48753397499574  84.09589263040792
  66  67  HP  74.63542601341032  148.3271306242425  97.62486282701738
  67  68  HP  64.78541027783757  99.67250303501883  146.98690255234402
  68  69  HP  106.5125152948181  62.16508510923839  143.64700517482066
  69  70  HP  114.77246061368096  128.85652142370856  141.41251013879122
  70  71  HP  76.24826248167676  118.37358961907623  99.5543294602507
  71  72  HP  107.38289622863796  111.4034743111365  131.74400931287204
  72  73  HP  120.95984094853276  100.42857780332375  111.00669044100927
  73  74  HP  54.68925745686136  86.8431969041048  97.51768166800977
  74  75  HP  82.74971013543932  88.08922972942261  99.47135529974133
  75  76  HP  145.01214013607262  133.61372624722077  127.90958253783695
  76  77  HP  103.00691350231844  97.28383075113925  66.69802444305668
  77  78  HP  84.70979475555723  129.24378644865715  73.43186298489624
  78  79  HP  125.60125553074343  143.26021359631068  62.777961282444615
  79  80  HP  149.0396067562184  52.8021892266468  92.787302087707
  80  81  HP  144.93662525375802  146.61872949637822  148.04302484256328
  81  82  HP  70.1161069508088  108.7465319669524  51.27647782982654
  82  83  HP  104.92088362355605  64.36286416308364  93.91916025448873
  83  84  HP  139.66555493118292  127.72797878218555  59.36814143619166
  84  85  HP  135.44003453803919  88.16788787001735  104.47271374441681
  85  86  HP  80.64097042921868  110.76594703112107  74.50718421184368
  86  87  HP  125.52152211838543  91.97593667892818  98.0136403094209
  87  88  HP  112.15727690469933  120.65765350840911  87.06245208930781
  88  89  HP  103.97902340617489  60.87624797673696  54.899655168354265
  89  90  HP  132.43041233558205  57.15822252184086  88.64299412460966
  90  91  HP  87.72136083432542  110.35382142465255  121.15774916922338
  91  92  HP  147.19901770775084  71.01236723770927  130.32970185051695
  92  93  HP  136.39714269252198  137.81510005450457  118.7447604964894
  93  94  HP  52.20690733028821  73.47980328372044  50.93705664916277
  94  95  HP  52.87738917569261  82.69962080819172  52.12503889381793
  95  96  HP  118.88850655113464  149.5585890004636  74.54576071106266
  96  97  HP  123.57937914241354  104.68721869234614  137.05205607283438
  97  98  HP  86.38212181361591  98.93590142830811  134.4078837564699
  98  99  HP  103.79748711357092  135.91735948743758  121.75040800154753
  99  100  HP  73.60725707657555  116.48279650073738  123.27619810785527
  100  101  HP  113.68214761563878  148.1079149822136  68.39111658374514
  101  102  HP  56.49705653092306  65.18187452198731  61.98726467272443
  102  103  HP  65.37600269781252  133.90814987572594  144.64631567531757
  103  104  HP  138.19916093017727  55.58172311200942  98.70892669873918
  104  105  HP  109.62452312783999  119.08219504787905  65.23347036797033
  105  106  HP  138.9155288305326  124.57803411485308  94.94008532167072
  106  107  HP  103.76705322371245  59.230271403810605  126.88497594369946
  107  108  HP  135.00241834801506  71.15940132501989  80.05619656689879
  108  109  HP  121.8066865070696  83.80929759448969  142.21827046160485
  109  110  HP  130.15620017264075  72.59793243896127  125.06016564490896
  110  111  HP  57.40526136276415  66.64246274797966  94.08354061787549
  111  112  HP  144.23941298264936  65.87118466368608  133.37717648412382
  112  113  HP  79.17905898106007  66.99824959420783  65.32338323937846
  113  114  HP  104.23577188739684  94.32105759336282  111.69803948036845
  114  115  HP  70.75935793781206  80.54325513850348  135.94263753102138
  115  116  HP  106.51720182140399  117.35684334473754  62.015447134586424
  116  117  HP  59.225120767659156  78.31557936690359  141.5096962846241
  117  118  HP  60.34158309865249  63.98589304817891  124.92356010500674
  118  119  HP  148.80315113212043  65.29786278955649  93.86170218441784
  119  120  HP  85.07474516190237  80.80799231647129  79.56638634267604
  120  121  HP  89.93154054695145  143.7447531892412  76.36270033779442
  121  122  HP  69.54538712501261  70.87131067953095  143.79230242273746
  122  123  HP  85.62239676190302  68.72602725422689  95.82063311289434
  123  124  HP  103.68857778154364  58.80890870241182  73.68089131636523
  124  125  HP  107.04378742281844  99.7344934427257  53.33160014140284
  125  126  HP  65.94398270400198  130.412236614068  133.5264721586036
  126  127  HP  82.5306989325615  112.90107882263996  88.21884566854862
  127  128  HP  95.15885662063243  59.7086158392503  80.01068896223438
  128  129  HP  54.40510349482144  107.18123629595084  116.99753991906803
  129  130  HP  91.30731702360252  123.03724724566595  112.34777810423489
  130  131  HP  110.38439218493677  104.66257605186492  123.95069762322174
  131  132  HP  147.1644136640517  94.06651338120216  137.6381829571423
  132  133  HP  73.40851543163969  117.36982803169244  124.80999233801212
  133  134  HP  58.68761970541604  122.78324796139019  149.92220018815726
  134  135  HP  118.69169815364961  105.39853975784511  142.6197704058979
  135  136  HP  67.26778358761032  124.85104766997328  111.88004335836494
  136  137  HP  97.56146544921073  115.23732660302947  105.6762662908294
  137  138  HP  105.47831590080659  128.71571729767237  109.92831151162162
  138  139  HP  65.09980237749167  97.42531291103984  90.31359508716821
  139  140  HP  109.52603450563734  54.732754816652765  109.4523389587495
  140  141  HP  115.85232672737635  107.21403632480772  81.51008142249697
  141  142  HP  65.63411264607544  104.21691658096108  74.3370887741154
  142  143  HP  73.0767665303307  109.22430577142461  53.45453218762866
  143  144  HP  73.08617375732933  122.39765916016697  92.81916591261759
  144  145  HP  62.2953063699921  97.05754280830665  113.78048337053164
  145  146  HP  66.87128748671658  60.083871084006724  118.70150904490616
  146  147  HP  126.76790002500638  58.25179858166724  90.2238765885418
  147  148  HP  134.3250037156572  66.1283556525753  105.00991429630763
  148  149  HP  122.97118725395883  123.24457753340734  69.9064066417977
  149  150  HP  119.28167563906297  59.88795138338211  128.0014249000617
  150  151  HP  128.5162864103599  53.260862029391134  64.00695899917822
  151  152  HP  62.65294706486007  57.9658067656354  65.2902920751733
  152  153  HP  70.71056513954808  89.56337514295309  63.768958093381045
  153  154  HP  76.64401601719581  129.36203187985979  57.05079079419818
  154  155  HP  140.14819552468546  141.79656866701566  69.39769127018755
  155  156  HP  121.74855529161917  137.14288860971342  96.52547160862802
  156  157  HP  60.10199471635528  145.92088835437295  118.26681443387629
  157  158  HP  54.367183996997646  103.45642864814423  54.99647533180442
  158  159  HP  146.73811900945083  124.65548876452728  104.73556885455821
  159  160  HP  71.08872975587605  101.6932913831757  126.4804911745087
  160  161  HP  97.49000154440536  52.88419344862605  118.94731272755894
  161  162  HP  104.06564063244319  93.17326964389692  77.19242460897567
  162  163  HP  119.39904125541204  135.83532246364496  146.4209165405189
  163  164  HP  77.50135021965953  101.39063067667911  96.93783554876069
  164  165  HP  92.2529877337572  118.74892318872287  86.0739443401449
  165  166  HP  64.46570391539777  71.94313765420156  100.99793501061532
  166  167  HP  73.1410776886812  58.75276422931914  144.77932335199955
  167  168  HP  136.94282083270582  88.5654904537225  86.44837984480114
  168  169  HP  110.76375229585878  60.072052691196006  92.26003491778971
  169  170  HP  50.74153942041961  83.39597551647714  142.35301013968854
  170  171  HP  70.48002457356608  56.08148388773717  100.37589831884176
  171  172  HP  91.82428025579216  64.1460500322556  136.41913809984638
  172  173  HP  83.09489018115414  99.29530031838223  50.68405164976044
  173  174  HP  111.48374139669176  130.3645906774218  93.81590972562152
  174  175  HP  59.56900272802951  138.47126209453342  68.57092388555071
  175  176  HP  112.80029550592383  100.99421725725517  86.40197864254932
  176  177  HP  63.74393963645324  143.01745084204475  60.27355553103311
  177  178  HP  81.68671695842767  142.66666367245716  97.59101619280008
  178  179  HP  86.86800946074777  73.57065501417082  82.68821709426621
  179  180  HP  83.78537890280376  72.77867267941514  138.4093411385229
  180  181  HP  80.43693047124209  66.56460988108361  142.35877320580545
  181  182  HP  61.9810903249033  93.04331791213406  131.2076637332365
  182  183  HP  84.25663588665199  146.15042896930527  101.04630819404436
  183  184  HP  77.50814104429513  95.98440233890096  127.306838110625
  184  185  HP  129.40364020364143  131.39992334886662  146.95354515835896
  185  186  HP  60.642230634783246  132.5452043353565  67.04106957107729
  186  187  HP  90.62972507210239  89.56665621416902  122.38244568983374
  187  188  HP  135.29578325868198  71.83734760565054  129.860044093481
  188  189  HP  74.54816763451194  100.92829898179463  104.01018761237557
  189  190  HP  128.48439423955278  71.22252180282506  136.59868535819237
  190  191  HP  71.34670333675251  123.50338851315009  88.49127269763392
  191  192  HP  106.77381175140047  139.36244406792935  131.31243929692585
  192  193  HP  71.6029138840524  95.74246863579515  127.36629507187544
  193  194  HP  146.72227830760158  76.2258886072947  84.37897549894247
  194  195  HP  92.28553541329546  124.73252544470523  65.73493636680331
  195  196  HP  77.64824637351653  55.24551130035604  53.405996852687956
  196  197  HP  110.58679927549653  62.1113591660251  137.26316446149707
  197  198  HP  119.94510078217641  65.12464562716382  127.316839359614
  198  199  HP  127.94483214332772  61.68477705530654  121.83274689405879
  199  200  HP  65.43119510617652  71.17661071341578  72.94906742079185
  200  201  HP  132.29512055599935  53.42019295572398  138.53351248007777
  201  202  HP  92.31946315742414  60.52282099110211  109.90935548146874
  202  203  HP  72.37052747071593  73.72110115131757  75.32847893610432
  203  204  HP  133.43192893837147  72.78455654222797  146.37182529680365
  204  205  HP  138.45128910368038  90.2204235075956  128.07589384437648
  205  206  HP  131.75639560795008  57.436986027025426  135.93616081697434
  206  207  HP  69.37716727672893  115.66337785348841  97.10933052974363
  207  208  HP  144.83016821713483  89.26419100383262  69.79156311087173
  208  209  HP  81.37532220313082  114.71991252729632  131.70951302991958
  209  210  HP  109.73710886346005  93.7936659833423  122.43006925344233
  210  211  HP  137.1381917427813  95.81133740047628  100.01222167918371
  211  212  HP  139.4727774571437  84.19935570538121  82.935080711573
  212  213  HP  149.95469418259484  57.36505814349843  147.20443789376526
  213  214  HP  148.20426062356157  55.8169727523913  126.92041659849357
  214  215  HP  133.38201490816093  68.533057956351  77.81497020880612
  215  216  HP  132.4165442703893  133.59460700176345  77.14212665843034
  216  217  HP  125.51190429161326  126.80800534471211  81.17066989212312
  217  218  HP  76.97129369364015  104.68445693688636  120.40011744547978
  218  219  HP  125.90812766664709  125.55532010700917  72.0484429859319
  219  220  HP  120.09890375961407  59.23730008159333  88.11796027414206
  220  221  HP  138.30666161982384  99.62107706888904  60.431247685111586
  221  222  HP  97.90224259650226  69.16219205739029  89.88791370316463
  222  223  HP  75.98900006687876  125.69121591860463  104.88074079772497
  223  224  HP  122.82536527745675  143.85733534101348  65.84501244492118
  224  225  HP  105.05701267262803  134.99844070134154  144.4212004486152
  225  226  HP  107.12505113160655  126.85209841392039  60.957280464614705
  226  227  HP  103.92945682098177  149.76601107057414  79.51970911130778
  227  228  HP  133.13040528176873  148.66010701956793  87.70865685954094
  228  229  HP  63.25762225616464  61.78923286847113  68.61263282735388
  229  230  HP  132.386063225257  51.39268134174061  113.33276644626781
  230  231  HP  75.43513908252488  115.20741368064293  140.96097323059263
  231  232  HP  129.91370054940427  131.97173465046149  133.61604719631515
  232  233  HP  91.92012743440965  130.51193064443066  55.565886718870686
  233  234  HP  102.47814768879779  79.4394654594139  70.38229428498434
  234  235  HP  118.0261600033462  99.9499581255659  50.236984903612466
  235  236  HP  110.65720771542294  106.08340221498025  85.96440418728014
  236  237  HP  59.80693951411088  66.78960898814591  140.48599932645595
  237  238  HP  128.36034987717557  51.38661547523823  89.79075522710788
  238  239  HP  92.2357023074738  53.42859311225939  89.060701100731
  239  240  HP  57.491764861982944  136.23932440488574  104.89073935590395
  240  241  HP  141.04670909195886  130.19701040211197  124.34843433875712
  241  242  HP  69.35913277112454  67.74728179335932  148.10491006916146
  242  243  HP  83.40568100368496  62.80243158678768  119.39589123728686
  243  244  HP  149.56006243285782  52.56142579478118  58.688738624596596
  244  245  HP  56.735191704479135  80.9316029950153  147.1446893194416
  245  246  HP  115.4017926824206  119.26786505487433  97.06478719424281
  246  247  HP  96.1653485092881  66.61765533255263  112.6741702403261
  247  248  HP  79.50493678933688  119.83473708803362  81.88622059372699
  248  249  HP  121.52337424629783  111.80339880628338  145.22326330511873
  249  250  HP  115.49714033024314  62.10134940044133  54.378425533112875
  250  251  HP  119.92923045298211  81.8824140179809  109.15928317303965
  251  252  HP  149.08270759182966  128.6989792666808  94.20423979253826
  252  253  HP  54.332277569630506  90.4022858846694  104.78490978073737
  253  254  HP  132.52641714578482  88.79396162571376  145.45576654317904
  254  255  HP  131.7523471506119  60.751991404895264  126.8834562845106
  255  256  HP  75.36848206501331  127.86498963165566  116.23823089890702
  256  257  HP  143.3415084974451  65.10008234620015  124.4894237581887
  257  258  HP  52.95533213965237  116.43730987591987  82.30630823298517
  258  259  HP  87.8493424645089  95.95556409723383  145.95001757271524
  259  260  HP  77.21440242369533  120.37484301879208  51.03113118649032
  260  261  HP  94.66959574443612  137.9050273507657  87.99898839119402
  261  262  HP  80.84837256925609  129.2823648623745  132.75801051005647
  262  263  HP  121.00567009942935  102.00297779952456  127.5649957076876
  263  264  HP  148.11456700882417  141.30852517494597  53.77487095402651
  264  265  HP  109.79704749682185  57.744581081728185  56.45411419547091
  265  266  HP  135.847346421618  62.158656119174864  111.04561030219392
  266  267  HP  54.5882476894803  72.53827940561233  107.8366399575801
  267  268  HP  145.01010488884842  52.00222892729642  146.49085426703584
  268  269  HP  68.7462312451522  81.34555340747663  106.61898307186522
  269  270  HP  126.13277079024041  105.70243039413933  68.60818996325224
  270  271  HP  81.25929099642254  57.35221549285424  124.3520823343363
  271  272  HP  97.1289953559121  65.05103271250817  83.48263111665527
  272  273  HP  79.57087310447324  102.65135783897051  61.673626235653884
  273  274  HP  85.37820809220479  59.70751852031879  60.61710893316274
  274  275  HP  72.48774197586424  131.718895387921  106.34519664009373
  275  276  HP  74.31536463467579  116.0793466178149  69.06514970181944
  276  277  HP  120.97729681180331  90.37364029328278  140.69794804060473
  277  278  HP  72.73771684932132  116.40771739592782  124.7131410751973
  278  279  HP  99.19285524612908  72.89796758640028  135.2149211212255
  279  280  HP  70.2663702571103  129.36370536789724  67.88681420494964
  280  281  HP  138.11573675844386  56.11831691545659  120.95147356437504
  281  282  HP  106.09534001857904  82.95086544284663  112.42120824514507
  282  283  HP  74.95207802985615  72.86680179188161  52.51894263904322
  283  284  HP  135.15134435455144  128.46620166023476  106.87510272451331
  284  285  HP  94.52869344809704  101.24922991363434  114.73162472866024
  285  286  HP  110.69746942612153  126.71099016139473  115.01146181186061
  286  287  HP  69.4281564679837  77.14413351952989  126.057969091533
  287  288  HP  125.75123760108092  104.33574219989279  128.753207480545
  288  289  HP  131.15109062507128  144.02340317850872  63.88639935648599
  289  290  HP  142.9420664334301  87.37961901740726  117.98859958351584
  290  291  HP  82.37248017280533  65.09205655494122  91.28909459730866
  291  292  HP  76.42060044735396  88.75269009501073  146.64888916370302
  292  293  HP  104.80814861922941  53.06215177826042  128.51277026688527
  293  294  HP  135.91945866286522  87.33157254192915  98.14945047267072
  294  295  HP  113.0724350469701  146.416574399475  125.87019142425962
  295  296  HP  109.43208462372623  80.81687419159731  83.93551638866923
  296  297  HP  127.97114817289041  122.75164868115019  79.93486253273234
  297  298  HP  80.31156274635997  98.47889023870164  92.92557260573165
  298  299  HP  116.33972362070463  86.24556934290698  131.89468733202725
  299  300  HP  137.96407888023614  57.039646207024404  112.04326349825908
  300  301  HP  103.05327439102248  126.67824501658347  93.98957998683053
  301  302  HP  90.04722720808738  65.52458344027383  106.91469681474922
  302  303  HP  68.62350731755605  62.19235593630616  110.68175327302689
  303  304  HP  66.30886060631406  60.014257682506376  54.186489319959875
  304  305  HP  146.27756321015897  119.1778093352959  112.13892095030639
  305  306  HP  78.73884530256271  68.76695984426975  53.32909940924008
  306  307  HP  60.74198816015929  137.5841751905591  144.62466540640895
  307  308  HP  95.52510168091302  75.81248325024184  93.13068907430383
  308  309  HP  91.46484529960497  114.18989506551763  130.09826004921536
  309  310  HP  65.84099435669538  77.06996748364595  56.514384616224504
  310  311  HP  82.67052060243684  83.31578327808491  148.67326407732554
  311  312  HP  127.29546632858188  69.76520139358055  81.1404205751145
  312  313  HP  109.62057056287634  121.3260586341854  149.66401216077577
  313  314  HP  93.52985241111801  118.80697380783971  127.80193581726718
  314  315  HP  117.49161139481426  115.51354681687408  88.63151830182434
  315  316  HP  67.36283685956258  83.47389008134758  106.96189025133546
  316  317  HP  111.63131943269204  134.06545801936318  126.23486436882015
  317  318  HP  71.0028572877865  120.7498120195456  93.80874477300688
  318  319  HP  51.16504652984935  55.52538182168233  52.80868792937387
  319  320  HP  93.78803056577074  104.10953429242592  69.3674007215633
  320  321  HP  113.28433189997685  60.17347639286287  69.35828649392792
  321  322  HP  64.56300701790751  149.8421142073443  139.48312661887093
  322  323  HP  81.78511429632815  75.23852104238347  131.72859825491904
  323  324  HP  135.35707470590063  143.10306510156394  55.328860896823684
  324  325  HP  120.8192398028904  92.4905550111975  98.13556303097533
  325  326  HP  52.831750249656075  107.4954189573559  93.51017523357723
  326  327  HP  85.68857182485127  92.99787849088847  87.63942025589117
  327  328  HP  115.67173513508709  135.58180105367956  104.4977289537715
  328  329  HP  69.86075996729147  144.49019644721142  93.26437576055312
  329  330  HP  138.09338745318723  94.10157676094028  90.85097502515049
  330  331  HP  121.2975915794719  55.17460677155764  112.57478860928647
  331  332  HP  67.48079545721191  106.06884033858586  134.24316787067886
  332  333  HP  129.65225455316522  133.02326687432628  129.87930567960095
  333  334  HP  106.36436493044565  130.97614323066085  69.58179742360285
  334  335  HP  104.31084016850102  78.57317624057087  80.87151642337467
  335  336  HP  103.4965284398522  82.82350719629613  111.10446363793565
  336  337  HP  52.39489747698808  114.64430648864018  87.47115921110311
  337  338  HP  79.5482238512151  83.4253526445605  139.25877480330888
  338  339  HP  89.85774473342019  120.28768860278736  102.12008719897446
  339  340  HP  140.69468784590833  125.455409605495  120.2001491675762
  340  341  HP  62.145526973686756  145.0587323173163  88.56644773139212
  341  342  HP  112.96375848743565  115.74943460621327  89.73365612116895
  342  343  HP  67.86960832938425  145.8764068469259  91.82860123741847
  343  344  HP  52.763618507562335  140.00751462705963  110.27451969316036
  344  345  HP  75.74607756549716  73.20526152498783  78.98737851632646
  345  346  HP  58.565169584859724  130.91632941418476  60.890779977091015
  346  347  HP  139.25945169933163  74.9163240693141  59.37119733232673
  347  348  HP  52.70596407622037  141.4671800776208  119.89799329295134
  348  349  HP  133.21140212585192  111.63380719772503  142.24151577227516
  349  350  HP  145.5138327930249  140.6587257037751  126.84218545509871
  350  351  HP  126.46147650213085  102.96452690296019  64.68837047985241
  351  352  HP  62.34827066136832  124.85711703052623  119.4725208964543
  352  353  HP  149.93293397902283  68.55035577369023  56.57133652129822
  353  354  HP  68.27074587320078  90.52794897832817  134.49419309335772
  354  355  HP  136.69653926022664  94.93340015146211  139.80470709014793
  355  356  HP  82.48713502919364  124.47685120760856  63.54217313122172
  356  357  HP  100.00632253884017  128.42848344949775  65.98015616811033
  357  358  HP  145.75126515670541  139.2896413177941  148.05633151874164
  358  359  HP  118.97588183570313  118.25916584942411  134.97827058855597
  359  360  HP  52.63862279890935  114.56231347965651  128.0945443119652
  360  361  HP  54.273789881943216  79.03672149889  138.67057450556206
  361  362  HP  96.7426773794364  110.29784791698006  78.74300501975952
  362  363  HP  93.63450253465982  53.34683714822689  88.23201796167572
  363  364  HP  64.80510673609088  120.20923441927441  139.96143640845565
  364  365  HP  116.58448227555732  125.61785076462509  88.2608948419537
  365  366  HP  105.79481917139225  83.22827066680904  142.7528788511185
  366  367  HP  124.42680698478243  52.11110390640192  82.79974834384717
  367  368  HP  63.85734497415086  88.68857233522056  64.61165193839742
  368  369  HP  63.95964364822974  129.73880855182364  96.30930886727066
  369  370  HP  85.85135987038603  139.4042427078813  90.81966220520917
  370  371  HP  121.07329720049766  128.25754491219635  143.22769958948763
  371  372  HP  88.7026999938947  82.62324451219564  140.70742614310615
  372  373  HP  63.767208356212166  115.18468453088694  130.93189254865172
  373  374  HP  101.94416772909125  103.71302083162527  56.68524368902137
  374  375  HP  70.101012205598  122.23273597917013  138.11838348761924
  375  376  HP  90.93061634790615  130.93454073899636  112.52739636933566
  376  377  HP  95.82145296309379  61.96006608890575  67.57489014293915
  377  378  HP  87.63464675784212  131.081788396964  94.87441623029136
  378  379  HP  52.07297129502979  81.41834481640032  81.65441191770657
  379  380  HP  61.66198906214141  130.94542902951855  94.51765616250125
  380  381  HP  100.19854968708594  108.16894980546392  59.514986095835965
  381  382  HP  84.79765061245931  105.40186168946838  55.10640140197771
  382  383  HP  140.10813477906774  50.34512155647614  50.5336031191461
  383  384  HP  96.31958444280677  65.36397204338998  95.66593224297716
  384  385  HP  147.0144096270012  57.0579491582841  142.88350794353846
  385  386  HP  144.96688583687637  144.60673475632302  86.17515964268193
  386  387  HP  77.976308855347  134.03468218554843  106.25492503872518
  387  388  HP  119.1950401811457  147.77740378172723  101.88318999381283
  388  389  HP  91.29711714502642  53.409567669212876  137.59327636176656
  389  390  HP  64.58513446338333  110.63578055220138  104.20761167536591
  390  391  HP  69.75035200415977  62.70130743081728  73.46857332905974
  391  392  HP  88.83542179469488  95.16006744758343  50.368792373703776
  392  393  HP  134.88645750865518  115.6109701579854  113.39723601919755
  393  394  HP  73.73092622227279  146.71405139990708  93.76847445049424
  394  395  HP  124.84697139651367  99.64838954936872  113.9618335864347
  395  396  HP  95.31725980245153  73.45212182207501  71.07290300317185
  396  397  HP  130.198997395736  58.20683765673537  50.31540115979227
  397  398  HP  139.49394236461887  80.62332973780882  142.90613723169827
  398  399  HP  60.39470416601638  65.38691889846169  99.81036506347334
  399  400  HP  70.84435232960897  107.98736681474145  72.9696159809024
  400  401  HP  64.51029485209206  85.97258407301342  101.26997383353331
  401  402  HP  90.74344475485884  89.68532839821373  137.5308706284964
  402  403  HP  53.58451133538706  134.89670410166474  59.09674333734163
  403  404  HP  65.04005108872197  58.034285488523636  87.52508930187204
  404  405  HP  138.4011718031755  85.51407962879429  70.24591513739074
  405  406  HP  119.570185897514  135.8283746105329  67.52210616335208
  406  407  HP  91.14510706241825  147.3569234611371  56.305500327502045
  407  408  HP  125.35341639910523  76.60071551717188  83.77521491600167
  408  409  HP  114.08031940167034  89.54506117261772  91.17096021819697
  409  410  HP  88.11291911858676  147.59483447789728  114.69993732883623