LAMMPS (17 Apr 2024)
OMP_NUM_THREADS environment is not set. Defaulting to 1 thread. (src/comm.cpp:98)
  using 1 OpenMP thread(s) per MPI task
Reading data file ...
  orthogonal box = (0 0 0) to (200 200 200)
  1 by 2 by 5 MPI processor grid
  reading atom labelmap ...
  reading bond labelmap ...
  reading angle labelmap ...
  reading dihedral labelmap ...
  reading atoms ...
  80 atoms
  scanning bonds ...
  6 = max bonds/atom
  scanning angles ...
  1 = max angles/atom
  scanning dihedrals ...
  1 = max dihedrals/atom
  orthogonal box = (0 0 0) to (200 200 200)
  1 by 2 by 5 MPI processor grid
  reading bonds ...
  79 bonds
  reading angles ...
  78 angles
  reading dihedrals ...
  77 dihedrals
Finding 1-2 1-3 1-4 neighbors ...
  special bond factors lj:    0        0        0       
  special bond factors coul:  0        0        0       
     2 = max # of 1-2 neighbors
     2 = max # of 1-3 neighbors
     4 = max # of 1-4 neighbors
    11 = max # of special neighbors
  special bonds CPU = 0.001 seconds
  read_data CPU = 0.008 seconds
Finding 1-2 1-3 1-4 neighbors ...
  special bond factors lj:    0        0        0.5     
  special bond factors coul:  0        0        0.5     
     2 = max # of 1-2 neighbors
     2 = max # of 1-3 neighbors
     4 = max # of 1-4 neighbors
    11 = max # of special neighbors
  special bonds CPU = 0.000 seconds
80 atoms in group chromatin
26 atoms in group Mtype
Generated 0 of 3 mixed pair_coeff terms from geometric mixing rule
Neighbor list info ...
  update: every = 1 steps, delay = 0 steps, check = yes
  max neighbors/atom: 2000, page size: 100000
  master list distance cutoff = 10
  ghost atom cutoff = 10
  binsize = 5, bins = 40 40 40
  2 neighbor lists, perpetual/occasional/extra = 1 1 0
  (1) pair morse, perpetual
      attributes: half, newton on
      pair build: half/bin/newton
      stencil: half/bin/3d
      bin: standard
  (2) compute coord/atom, occasional
      attributes: full, newton on
      pair build: full/bin
      stencil: full/bin/3d
      bin: standard
Setting up Verlet run ...
  Unit style    : lj
  Current step  : 0
  Time step     : 0.01
Per MPI rank memory allocation (min/avg/max) = 8.396 | 8.613 | 8.983 Mbytes
   Step          Temp     
         0   1            
     10000   1.0347814    
Loop time of 0.245029 on 10 procs for 10000 steps with 80 atoms

Performance: 35261175.528 tau/day, 40811.546 timesteps/s, 3.265 Matom-step/s
100.0% CPU use with 10 MPI tasks x 1 OpenMP threads

MPI task timing breakdown:
Section |  min time  |  avg time  |  max time  |%varavg| %total
---------------------------------------------------------------
Pair    | 0.0002921  | 0.011324   | 0.1054     |  29.5 |  4.62
Bond    | 0.0003984  | 0.007604   | 0.065596   |  22.2 |  3.10
Neigh   | 0.008923   | 0.0093428  | 0.0096123  |   0.2 |  3.81
Comm    | 0.0025417  | 0.026809   | 0.11324    |  26.1 | 10.94
Output  | 9.6e-06    | 2.738e-05  | 3.27e-05   |   0.0 |  0.01
Modify  | 0.0008123  | 0.0043576  | 0.031654   |  13.8 |  1.78
Other   |            | 0.1856     |            |       | 75.73

Nlocal:              8 ave          80 max           0 min
Histogram: 9 0 0 0 0 0 0 0 0 1
Nghost:            1.8 ave          18 max           0 min
Histogram: 9 0 0 0 0 0 0 0 0 1
Neighs:           76.2 ave         762 max           0 min
Histogram: 9 0 0 0 0 0 0 0 0 1
FullNghs:            0 ave           0 max           0 min
Histogram: 10 0 0 0 0 0 0 0 0 0

Total # of neighbors = 762
Ave neighs/atom = 9.525
Ave special neighs/atom = 5.85
Neighbor list builds = 254
Dangerous builds = 0
System init for write_restart ...
Generated 0 of 3 mixed pair_coeff terms from geometric mixing rule
Read molecule template AM_post:
# This is a molecule template for molecule 1
  1 molecules
  0 fragments
  2 atoms with max type 2
  0 bonds with max type 0
  0 angles with max type 0
  0 dihedrals with max type 0
  0 impropers with max type 0
Read molecule template AM_pre:
# This is a molecule template for molecule 1
  1 molecules
  0 fragments
  2 atoms with max type 3
  0 bonds with max type 0
  0 angles with max type 0
  0 dihedrals with max type 0
  0 impropers with max type 0
Read molecule template AU_post:
# This is a molecule template for molecule 1
  1 molecules
  0 fragments
  2 atoms with max type 1
  0 bonds with max type 0
  0 angles with max type 0
  0 dihedrals with max type 0
  0 impropers with max type 0
Read molecule template AU_pre:
# This is a molecule template for molecule 1
  1 molecules
  0 fragments
  2 atoms with max type 2
  0 bonds with max type 0
  0 angles with max type 0
  0 dihedrals with max type 0
  0 impropers with max type 0
Read molecule template MA_post:
# This is a molecule template for molecule 1
  1 molecules
  0 fragments
  2 atoms with max type 3
  0 bonds with max type 0
  0 angles with max type 0
  0 dihedrals with max type 0
  0 impropers with max type 0
Read molecule template MA_pre:
# This is a molecule template for molecule 1
  1 molecules
  0 fragments
  2 atoms with max type 3
  0 bonds with max type 0
  0 angles with max type 0
  0 dihedrals with max type 0
  0 impropers with max type 0
Read molecule template MU_post:
# This is a molecule template for molecule 1
  1 molecules
  0 fragments
  2 atoms with max type 3
  0 bonds with max type 0
  0 angles with max type 0
  0 dihedrals with max type 0
  0 impropers with max type 0
Read molecule template MU_pre:
# This is a molecule template for molecule 1
  1 molecules
  0 fragments
  2 atoms with max type 3
  0 bonds with max type 0
  0 angles with max type 0
  0 dihedrals with max type 0
  0 impropers with max type 0
dynamic group bond_react_MASTER_group defined
30 atoms in group typeA
24 atoms in group typeU
26 atoms in group typeM

CITE-CITE-CITE-CITE-CITE-CITE-CITE-CITE-CITE-CITE-CITE-CITE-CITE

Your simulation uses code contributions which should be cited:
- fix bond/react: reacter.org doi:10.1016/j.polymer.2017.09.038, doi:10.1021/acs.macromol.0c02012
The log file lists these citations in BibTeX format.

CITE-CITE-CITE-CITE-CITE-CITE-CITE-CITE-CITE-CITE-CITE-CITE-CITE

Generated 0 of 3 mixed pair_coeff terms from geometric mixing rule
Neighbor list info ...
  update: every = 1 steps, delay = 0 steps, check = yes
  max neighbors/atom: 2000, page size: 100000
  master list distance cutoff = 10
  ghost atom cutoff = 10
  binsize = 5, bins = 40 40 40
  3 neighbor lists, perpetual/occasional/extra = 1 2 0
  (1) pair morse, perpetual
      attributes: half, newton on
      pair build: half/bin/newton
      stencil: half/bin/3d
      bin: standard
  (2) compute coord/atom, occasional
      attributes: full, newton on
      pair build: full/bin
      stencil: full/bin/3d
      bin: standard
  (3) fix bond/react, occasional, copy from (1)
      attributes: half, newton on
      pair build: copy
      stencil: none
      bin: none
Setting up Verlet run ...
  Unit style    : lj
  Current step  : 10000
  Time step     : 0.001
Per MPI rank memory allocation (min/avg/max) = 8.712 | 8.926 | 9.295 Mbytes
---
keywords: ['Step', 'Temp', 'c_R2[0]', 'f_4[1]', 'f_4[2]', 'f_4[3]', 'f_4[4]', ]
data:
  - [10000, 1.03478140372529, 16.9245743788816, 0, 0, 0, 0, ]
  - [20000, 0.893767122335711, 16.7831451832744, 0, 0, 0, 0, ]
  - [30000, 1.01832030136873, 16.6437039887715, 0, 0, 0, 0, ]
  - [40000, 0.996264201793122, 17.01654874068, 0, 0, 0, 0, ]
  - [50000, 1.27913181594953, 17.1625688513538, 0, 0, 0, 0, ]
  - [60000, 0.90354509544896, 16.7361100883965, 0, 0, 0, 0, ]
  - [70000, 0.927717629060574, 16.8767374248429, 0, 0, 0, 0, ]
  - [80000, 1.0677258620146, 17.1522737777829, 0, 0, 0, 0, ]
  - [90000, 0.978182876231309, 17.1077307444077, 0, 0, 0, 0, ]
reacted_atom_IDs: reacUA 67 71
  - [100000, 1.20517428283701, 17.1578486909322, 0, 0, 1, 0, ]
  - [110000, 0.853336295073328, 17.0918082237773, 0, 0, 1, 0, ]
  - [120000, 1.04928140954691, 16.8227640929994, 0, 0, 1, 0, ]
  - [130000, 1.01043108915057, 17.4252059501864, 0, 0, 1, 0, ]
  - [140000, 0.993129215757992, 17.2484938527364, 0, 0, 1, 0, ]
  - [150000, 0.987547249273737, 17.2666931125805, 0, 0, 1, 0, ]
  - [160000, 0.957036379544227, 17.3683326433696, 0, 0, 1, 0, ]
  - [170000, 0.941970336163029, 17.3574604637243, 0, 0, 1, 0, ]
  - [180000, 0.86522281298732, 17.2622886281529, 0, 0, 1, 0, ]
  - [190000, 0.933907409848282, 16.7730600274484, 0, 0, 1, 0, ]
  - [200000, 0.961884317451719, 16.5944414856978, 0, 0, 1, 0, ]
reacted_atom_IDs: reacMU 23 27
  - [210000, 0.829212358634767, 16.0277956133946, 0, 1, 1, 0, ]
  - [220000, 0.967205911220916, 15.8093620626777, 0, 1, 1, 0, ]
  - [230000, 0.868858845235289, 16.1046090891211, 0, 1, 1, 0, ]
  - [240000, 1.18251886329565, 15.9870987306806, 0, 1, 1, 0, ]
  - [250000, 0.9249735610165, 16.2383640889975, 0, 1, 1, 0, ]
  - [260000, 1.09324405379429, 15.6447738357359, 0, 1, 1, 0, ]
  - [270000, 0.912424222122672, 16.0308166588955, 0, 1, 1, 0, ]
  - [280000, 0.906674535204933, 16.0724353538964, 0, 1, 1, 0, ]
  - [290000, 1.16003688881625, 16.5542246691789, 0, 1, 1, 0, ]
  - [300000, 1.05001681022031, 16.6814490153758, 0, 1, 1, 0, ]
  - [310000, 0.958347880520509, 16.891654258751, 0, 1, 1, 0, ]
  - [320000, 1.12468670324241, 16.5741247680148, 0, 1, 1, 0, ]
  - [330000, 0.95137928307936, 17.0493504805401, 0, 1, 1, 0, ]
  - [340000, 0.991666390475298, 17.0483224135691, 0, 1, 1, 0, ]
  - [350000, 0.996004150853537, 16.6737024729197, 0, 1, 1, 0, ]
  - [360000, 0.85553578131705, 16.8996819481691, 0, 1, 1, 0, ]
  - [370000, 1.16982971490228, 17.009772667551, 0, 1, 1, 0, ]
  - [380000, 0.879883092763208, 16.9496807947203, 0, 1, 1, 0, ]
  - [390000, 1.12360335416177, 16.567155199334, 0, 1, 1, 0, ]
  - [400000, 0.906117576519613, 16.9392774879377, 0, 1, 1, 0, ]
  - [410000, 0.864726756084227, 16.5360999196266, 0, 1, 1, 0, ]
  - [420000, 0.933478433185951, 16.4918552779354, 0, 1, 1, 0, ]
  - [430000, 0.941195780549347, 16.638566629532, 0, 1, 1, 0, ]
  - [440000, 0.97601557734503, 16.3109999869685, 0, 1, 1, 0, ]
  - [450000, 0.966660839870473, 15.9366873427197, 0, 1, 1, 0, ]
  - [460000, 0.986328183866387, 15.4983264209715, 0, 1, 1, 0, ]
  - [470000, 0.998482324084473, 15.0487293346299, 0, 1, 1, 0, ]
  - [480000, 1.06150796824236, 14.851394198726, 0, 1, 1, 0, ]
  - [490000, 0.888877445887286, 14.5625836309255, 0, 1, 1, 0, ]
  - [500000, 1.04051401600651, 14.6153975898868, 0, 1, 1, 0, ]
  - [510000, 1.08051345992022, 14.4014770676891, 0, 1, 1, 0, ]
  - [520000, 1.04994356506788, 14.2113391172431, 0, 1, 1, 0, ]
  - [530000, 1.0425643565259, 13.7353565922353, 0, 1, 1, 0, ]
  - [540000, 0.919898928275186, 14.4487521227046, 0, 1, 1, 0, ]
  - [550000, 0.943108095749084, 14.6727668122296, 0, 1, 1, 0, ]
  - [560000, 1.14998289348425, 14.6012796263349, 0, 1, 1, 0, ]
  - [570000, 0.926238816838972, 14.9868522649689, 0, 1, 1, 0, ]
  - [580000, 1.03809045178338, 14.8206467805814, 0, 1, 1, 0, ]
  - [590000, 1.13069163973518, 15.2219303667839, 0, 1, 1, 0, ]
  - [600000, 1.05242236335874, 15.5247247783315, 0, 1, 1, 0, ]
  - [610000, 0.950555961734899, 15.1720742784153, 0, 1, 1, 0, ]
  - [620000, 1.04296157819949, 15.07875202229, 0, 1, 1, 0, ]
  - [630000, 1.10752517110682, 15.1367871206352, 0, 1, 1, 0, ]
  - [640000, 1.0101608434275, 15.2789498157615, 0, 1, 1, 0, ]
