LAMMPS (17 Apr 2024)
OMP_NUM_THREADS environment is not set. Defaulting to 1 thread. (src/comm.cpp:98)
  using 1 OpenMP thread(s) per MPI task
#package gpu 1 split 0.75
# VARIABLES
variable fname index InitialFile.txt
variable simname index InitialFile

# Initialization
units		lj
boundary	    p p p
atom_style	molecular

# read_restart	restart.equil
read_data InitialFile.txt extra/bond/per/atom 5 extra/special/per/atom 5
Reading data file ...
  orthogonal box = (0 0 0) to (200 200 200)
  1 by 2 by 5 MPI processor grid
  reading atom labelmap ...
  reading bond labelmap ...
  reading angle labelmap ...
  reading dihedral labelmap ...
  reading atoms ...
  80 atoms
  scanning bonds ...
  6 = max bonds/atom
  scanning angles ...
  1 = max angles/atom
  scanning dihedrals ...
  1 = max dihedrals/atom
  orthogonal box = (0 0 0) to (200 200 200)
  1 by 2 by 5 MPI processor grid
  reading bonds ...
  79 bonds
  reading angles ...
  78 angles
  reading dihedrals ...
  77 dihedrals
Finding 1-2 1-3 1-4 neighbors ...
  special bond factors lj:    0        0        0       
  special bond factors coul:  0        0        0       
     2 = max # of 1-2 neighbors
     2 = max # of 1-3 neighbors
     4 = max # of 1-4 neighbors
    11 = max # of special neighbors
  special bonds CPU = 0.000 seconds
  read_data CPU = 0.004 seconds

# Dreiding potential information
neighbor	2.0 bin
neigh_modify every 1 delay 0 check yes

# Define the bond potential
# Type - Energy - Equilibrium bond length
bond_style      harmonic
bond_coeff	Normal 30 1
special_bonds lj/coul 0.0 0.0 0.5
Finding 1-2 1-3 1-4 neighbors ...
  special bond factors lj:    0        0        0.5     
  special bond factors coul:  0        0        0.5     
     2 = max # of 1-2 neighbors
     2 = max # of 1-3 neighbors
     4 = max # of 1-4 neighbors
    11 = max # of special neighbors
  special bonds CPU = 0.000 seconds

angle_style harmonic
angle_coeff Normal 15 109.5

dihedral_style harmonic
dihedral_coeff Normal 15 1 1

# Define morse potentials D - alpha - r0
pair_style	morse 8.0 # Cutoff
pair_coeff	* * 5e-1 1 2.0 # Define all pair coeff to be like that
pair_coeff M M 5e-1 1 1.0 # Define M-M pair coeff


#####################################################
# Chromatin, CenH Region, Promoter and Transcription

group chromatin type 1 2 3
80 atoms in group chromatin
group Mtype type 3
26 atoms in group Mtype



#####################################################


#####################################################
# set timestep of integrator

timestep 0.01

#####################################################
# Compute properties
compute R2 chromatin gyration

# Compute coordination number of N atoms around each atom
compute coordMtype Mtype coord/atom cutoff 2.0 group Mtype

# Define an atom-style variable to store the coordination number
variable my_coord atom c_coordMtype

#compute pe chromatin pe

#####################################################
# Equilibration

velocity 	chromatin create 1.0 12315
fix		1 chromatin nve/limit 1
fix 2 chromatin langevin 1.0 1.0 1.0 12315
thermo_style	custom step temp
thermo          10000


run		1000000
Generated 0 of 3 mixed pair_coeff terms from geometric mixing rule
Neighbor list info ...
  update: every = 1 steps, delay = 0 steps, check = yes
  max neighbors/atom: 2000, page size: 100000
  master list distance cutoff = 10
  ghost atom cutoff = 10
  binsize = 5, bins = 40 40 40
  2 neighbor lists, perpetual/occasional/extra = 1 1 0
  (1) pair morse, perpetual
      attributes: half, newton on
      pair build: half/bin/newton
      stencil: half/bin/3d
      bin: standard
  (2) compute coord/atom, occasional
      attributes: full, newton on
      pair build: full/bin
      stencil: full/bin/3d
      bin: standard
Per MPI rank memory allocation (min/avg/max) = 8.396 | 8.613 | 8.983 Mbytes
   Step          Temp     
         0   1            
     10000   1.0347814    
     20000   0.9955688    
     30000   0.95639706   
     40000   1.0682265    
     50000   1.1604692    
     60000   0.93940392   
     70000   0.84660668   
     80000   1.0870737    
     90000   1.1331939    
    100000   0.99646611   
    110000   1.1919831    
    120000   0.94885199   
    130000   0.95048719   
    140000   1.0707427    
    150000   1.0492619    
    160000   1.0917147    
    170000   0.94738299   
    180000   0.98885292   
    190000   0.95440203   
    200000   0.99617028   
    210000   1.0743074    
    220000   0.95123674   
    230000   0.85196637   
    240000   1.0765894    
    250000   1.0730867    
    260000   0.96493898   
    270000   1.123263     
    280000   0.91129067   
    290000   0.99403646   
    300000   0.92020071   
    310000   1.0635054    
    320000   0.86930816   
    330000   0.8186792    
    340000   0.79145054   
    350000   1.1642448    
    360000   0.86059547   
    370000   0.94111992   
    380000   1.0978803    
    390000   0.9387492    
    400000   1.0230397    
    410000   0.94500653   
    420000   1.0640769    
    430000   1.1511649    
    440000   1.1364933    
    450000   1.0208669    
    460000   1.0392561    
    470000   1.0129899    
    480000   1.2646051    
    490000   0.85146417   
    500000   0.89548531   
    510000   0.95068861   
    520000   0.97863967   
    530000   0.96375705   
    540000   0.98070271   
    550000   0.86165038   
    560000   0.88454413   
    570000   0.92095164   
    580000   0.99723421   
    590000   1.0518781    
    600000   0.96095579   
    610000   0.99612287   
    620000   0.99336539   
    630000   1.0186654    
    640000   1.3176512    
    650000   1.2238313    
    660000   0.93679585   
    670000   1.0620447    
    680000   1.0506609    
    690000   1.1800133    
    700000   0.90378654   
    710000   1.1784029    
    720000   1.056831     
    730000   1.062461     
    740000   0.96725837   
    750000   1.1162901    
    760000   1.1916809    
    770000   0.96112894   
    780000   0.98853052   
    790000   0.96254444   
    800000   1.0055517    
    810000   0.93236489   
    820000   1.0709384    
    830000   1.0898029    
    840000   0.9402191    
    850000   1.0794741    
    860000   1.2872949    
    870000   1.1256883    
    880000   0.97367907   
    890000   0.9953349    
    900000   1.0602896    
    910000   1.1871463    
    920000   0.92860171   
    930000   0.97661599   
    940000   1.1584585    
    950000   0.89550907   
    960000   1.1080981    
    970000   1.2269373    
    980000   1.0033262    
    990000   0.97673833   
   1000000   1.036138     
Loop time of 48.8272 on 10 procs for 1000000 steps with 80 atoms

Performance: 17695066.953 tau/day, 20480.402 timesteps/s, 1.638 Matom-step/s
100.0% CPU use with 10 MPI tasks x 1 OpenMP threads

MPI task timing breakdown:
Section |  min time  |  avg time  |  max time  |%varavg| %total
---------------------------------------------------------------
Pair    | 0.036743   | 3.6668     | 30.191     | 471.4 |  7.51
Bond    | 0.059793   | 0.77468    | 6.4832     | 217.5 |  1.59
Neigh   | 0.8189     | 0.85857    | 0.87982    |   2.4 |  1.76
Comm    | 0.2582     | 4.3137     | 33.635     | 479.5 |  8.83
Output  | 0.0011657  | 0.0050964  | 0.0057287  |   1.9 |  0.01
Modify  | 0.10406    | 0.45277    | 3.1628     | 135.1 |  0.93
Other   |            | 38.76      |            |       | 79.37

Nlocal:              8 ave          72 max           0 min
Histogram: 8 1 0 0 0 0 0 0 0 1
Nghost:              8 ave          72 max           0 min
Histogram: 8 1 0 0 0 0 0 0 0 1
Neighs:          300.3 ave        2983 max           0 min
Histogram: 9 0 0 0 0 0 0 0 0 1
FullNghs:            0 ave           0 max           0 min
Histogram: 10 0 0 0 0 0 0 0 0 0

Total # of neighbors = 3003
Ave neighs/atom = 37.5375
Ave special neighs/atom = 5.85
Neighbor list builds = 16677
Dangerous builds = 0

write_restart restart.equil
System init for write_restart ...
Generated 0 of 3 mixed pair_coeff terms from geometric mixing rule
# Not necessary anymore to have a restart file as it is already loaded

#####################################################


dump mydmp all atom 1000 dump.lammpstrj

timestep 0.001
#####################################################
molecule AM_post AM_post-reaction.template
Read molecule template AM_post:
# This is a molecule template for molecule 1
  1 molecules
  0 fragments
  2 atoms with max type 2
  0 bonds with max type 0
  0 angles with max type 0
  0 dihedrals with max type 0
  0 impropers with max type 0
molecule AM_pre AM_pre-reaction.template
Read molecule template AM_pre:
# This is a molecule template for molecule 1
  1 molecules
  0 fragments
  2 atoms with max type 3
  0 bonds with max type 0
  0 angles with max type 0
  0 dihedrals with max type 0
  0 impropers with max type 0
molecule AU_post AU_post-reaction.template
Read molecule template AU_post:
# This is a molecule template for molecule 1
  1 molecules
  0 fragments
  2 atoms with max type 1
  0 bonds with max type 0
  0 angles with max type 0
  0 dihedrals with max type 0
  0 impropers with max type 0
molecule AU_pre AU_pre-reaction.template
Read molecule template AU_pre:
# This is a molecule template for molecule 1
  1 molecules
  0 fragments
  2 atoms with max type 2
  0 bonds with max type 0
  0 angles with max type 0
  0 dihedrals with max type 0
  0 impropers with max type 0
molecule MA_post MA_post-reaction.template
Read molecule template MA_post:
# This is a molecule template for molecule 1
  1 molecules
  0 fragments
  2 atoms with max type 3
  0 bonds with max type 0
  0 angles with max type 0
  0 dihedrals with max type 0
  0 impropers with max type 0
molecule MA_pre MA_pre-reaction.template
Read molecule template MA_pre:
# This is a molecule template for molecule 1
  1 molecules
  0 fragments
  2 atoms with max type 3
  0 bonds with max type 0
  0 angles with max type 0
  0 dihedrals with max type 0
  0 impropers with max type 0
molecule MU_post MU_post-reaction.template
Read molecule template MU_post:
# This is a molecule template for molecule 1
  1 molecules
  0 fragments
  2 atoms with max type 3
  0 bonds with max type 0
  0 angles with max type 0
  0 dihedrals with max type 0
  0 impropers with max type 0
molecule MU_pre MU_pre-reaction.template
Read molecule template MU_pre:
# This is a molecule template for molecule 1
  1 molecules
  0 fragments
  2 atoms with max type 3
  0 bonds with max type 0
  0 angles with max type 0
  0 dihedrals with max type 0
  0 impropers with max type 0


#####################################################
# Do the reactions

fix 4 all bond/react      react reacAU chromatin 1 0 2 AM_pre AM_post simple.map molecule intra prob 1e-5 596     react reacMU chromatin 1 0 2 AU_pre AU_post simple.map molecule intra prob 1e-5 89      react reacUA chromatin 1 0 2 MA_pre MA_post simple.map molecule intra prob 1e-5 2856     react reacUM chromatin 1 0 2 MU_pre MU_post simple.map molecule intra prob 1e-5 3     #react reacUnactivationPoly promo_and_poly 1 0 2 UnactivationPoly_pre UnactivationPoly_post UnactivationPoly.map molecule inter prob 1e-1  3519
dynamic group bond_react_MASTER_group defined
    #react reacUMcenH cenH 1 0 2 MU_pre MU_post simple.map molecule intra prob 1e-4 3890     #react reacUAcenH cenH 1 0 2 MA_pre MA_post simple.map molecule intra prob 1e-4  2866     #react reacTranscription1 TranscriptionReactionGroup 1 0 3 Transcription_MU_pre Transcription_MU_post transcription_2steps.map molecule inter prob 1e-1  254     #react reacTranscription2 TranscriptionReactionGroup 1 0 3 Transcription_UA_pre Transcription_UA_post transcription_2steps.map molecule inter prob 1e-1  8902     #react reacReactivationPolyA chromatin_and_poly 1 0 2 ReactivationPoly_A_pre ReactivationPoly_A_post ReactivationPoly.map molecule inter prob 1e-3  254     #react reacReactivationPolyU chromatin_and_poly 1 0 2 ReactivationPoly_U_pre ReactivationPoly_U_post ReactivationPoly.map molecule inter prob 1e-3  890


#####################################################

thermo_style custom step temp c_R2[0] f_4[1] f_4[2] f_4[3] f_4[4]
thermo_modify line yaml
thermo 10000
#####################################################



#####################################################
fix 2 chromatin langevin 1.0 1.0 1.0 12315
fix		1 chromatin nve/limit 1

####################################################
# WALL CONDITIONS

# fix mywall M_Atoms wall/lj93 xlo EDGE 10 10 100 xhi EDGE 10 10 100

####################################################

fix myfixR2 chromatin ave/time 10 100 1000 c_R2[0] file r2.dat

####################################################
# Compute the count of atom types
compute myTypes all count/type atom

# Define a variable to store the count of atom types
variable typeA equal c_myTypes[1]
variable typeU equal c_myTypes[2]
variable typeM equal c_myTypes[3]

# Output the count of atom types to a file every 1000 steps
fix myfixTypes all print 1000 "${typeA},${typeU},${typeM}" file types1.dat screen no

####################################################
# Count reactions

variable reactionsIDs1 equal f_4[1]
variable reactionsIDs2 equal f_4[2]
variable reactionsIDs3 equal f_4[3]
variable reactionsIDs4 equal f_4[4]

fix myFixReactions all print 10000 "${reactionsIDs1},${reactionsIDs2},${reactionsIDs3},${reactionsIDs4}," file reactions.dat screen no

####################################################
dump myDump chromatin custom 10000 id_and_type.dat id type
#####################################################


label loopreplication
    run 1000000

CITE-CITE-CITE-CITE-CITE-CITE-CITE-CITE-CITE-CITE-CITE-CITE-CITE

Your simulation uses code contributions which should be cited:

- fix bond/react: reacter.org doi:10.1016/j.polymer.2017.09.038, doi:10.1021/acs.macromol.0c02012

@Article{Gissinger17,
 author = {J. R. Gissinger and B. D. Jensen and K. E. Wise},
 title = {Modeling Chemical Reactions in Classical Molecular Dynamics Simulations},
 journal = {Polymer},
 year =    2017,
 volume =  128,
 pages =   {211--217}
}

@Article{Gissinger20,
 author = {J. R. Gissinger, B. D. Jensen, K. E. Wise},
 title = {{REACTER}: A Heuristic Method for Reactive Molecular Dynamics},
 journal = {Macromolecules},
 year =    2020,
 volume =  53,
 number =  22,
 pages =   {9953--9961}
}

CITE-CITE-CITE-CITE-CITE-CITE-CITE-CITE-CITE-CITE-CITE-CITE-CITE

Generated 0 of 3 mixed pair_coeff terms from geometric mixing rule
Neighbor list info ...
  update: every = 1 steps, delay = 0 steps, check = yes
  max neighbors/atom: 2000, page size: 100000
  master list distance cutoff = 10
  ghost atom cutoff = 10
  binsize = 5, bins = 40 40 40
  3 neighbor lists, perpetual/occasional/extra = 1 2 0
  (1) pair morse, perpetual
      attributes: half, newton on
      pair build: half/bin/newton
      stencil: half/bin/3d
      bin: standard
  (2) compute coord/atom, occasional
      attributes: full, newton on
      pair build: full/bin
      stencil: full/bin/3d
      bin: standard
  (3) fix bond/react, occasional, copy from (1)
      attributes: half, newton on
      pair build: copy
      stencil: none
      bin: none
Per MPI rank memory allocation (min/avg/max) = 8.712 | 8.926 | 9.295 Mbytes
---
keywords: ['Step', 'Temp', 'c_R2[0]', 'f_4[1]', 'f_4[2]', 'f_4[3]', 'f_4[4]', ]
data:
  - [1000000, 1.03613802778219, 2.11178525784985, 0, 0, 0, 0, ]
  - [1010000, 1.0032970335423, 2.16536966905999, 0, 0, 1, 0, ]
  - [1020000, 1.20936220664451, 2.09248344544152, 1, 1, 2, 3, ]
  - [1030000, 1.10674750093538, 2.09284985519744, 2, 3, 4, 4, ]
  - [1040000, 0.95737682845475, 2.00715840835876, 5, 5, 6, 4, ]
  - [1050000, 0.947843088825042, 2.09630706139811, 8, 5, 6, 7, ]
  - [1060000, 1.10531101765934, 2.06016288490838, 8, 7, 6, 9, ]
  - [1070000, 0.903570453057124, 2.12029373759875, 10, 7, 7, 9, ]
  - [1080000, 0.936688248600971, 2.08130476504633, 11, 8, 8, 10, ]
  - [1090000, 0.857778249871201, 2.06391861674683, 11, 9, 10, 10, ]
  - [1100000, 0.991427528583764, 2.10612117581006, 11, 11, 10, 10, ]
  - [1110000, 0.988933634619984, 2.10783264946992, 12, 13, 12, 11, ]
  - [1120000, 0.983017441116855, 2.10726785731555, 15, 13, 13, 12, ]
  - [1130000, 1.02698947978126, 2.04586622537119, 16, 14, 13, 15, ]
  - [1140000, 1.02112257148203, 2.04343242431768, 16, 14, 13, 16, ]
  - [1150000, 1.19607258587818, 2.07157620844337, 16, 14, 14, 16, ]
  - [1160000, 1.06063820676403, 2.05337787174577, 16, 16, 14, 18, ]
  - [1170000, 0.950064006678305, 2.01087671911335, 18, 16, 14, 22, ]
  - [1180000, 0.964609128289796, 2.07214768717101, 19, 18, 15, 22, ]
  - [1190000, 0.997542541892641, 1.96382966783344, 19, 19, 17, 24, ]
  - [1200000, 1.09212037770316, 1.9952921904876, 20, 19, 17, 24, ]
  - [1210000, 0.96533571771898, 1.99630017684553, 20, 19, 18, 25, ]
  - [1220000, 0.996023101109482, 2.04538556112594, 21, 19, 18, 25, ]
  - [1230000, 1.07362331619671, 2.04148330495787, 22, 21, 20, 26, ]
  - [1240000, 1.06165799101368, 2.0248471622876, 24, 22, 21, 26, ]
  - [1250000, 0.976006009815901, 2.1213852211862, 26, 26, 22, 27, ]
  - [1260000, 1.01468162526976, 2.10364734122116, 27, 28, 24, 28, ]
  - [1270000, 0.997705485938663, 2.03033949412309, 27, 29, 24, 30, ]
  - [1280000, 1.07641311479459, 2.08411641773611, 28, 30, 24, 30, ]
  - [1290000, 0.932920593292844, 2.15405433210268, 30, 30, 24, 30, ]
  - [1300000, 1.05788988446272, 2.09822998787298, 31, 30, 24, 32, ]
  - [1310000, 1.10638313111579, 2.06507471699301, 32, 31, 26, 32, ]
  - [1320000, 0.996699181161134, 2.13091248777973, 33, 33, 26, 32, ]
  - [1330000, 1.13698215227899, 2.07018474965993, 34, 33, 27, 34, ]
  - [1340000, 1.10627717604209, 2.11006472602264, 37, 33, 29, 34, ]
  - [1350000, 1.11794638823594, 2.12059021561634, 38, 36, 29, 36, ]
  - [1360000, 1.02424449735518, 2.19660277357916, 38, 38, 29, 36, ]
  - [1370000, 0.913965926391797, 2.12202066710992, 39, 39, 29, 36, ]
  - [1380000, 1.1392629670405, 2.08951562551526, 40, 39, 29, 36, ]
  - [1390000, 0.892257993122043, 2.11786642613414, 40, 39, 30, 37, ]
  - [1400000, 0.994194988130648, 2.10593763553797, 41, 42, 31, 38, ]
  - [1410000, 1.09266725310012, 2.12137497899582, 44, 43, 32, 38, ]
  - [1420000, 1.04716262563138, 2.14030025101856, 44, 45, 32, 38, ]
  - [1430000, 0.981187743687398, 2.13372145923803, 45, 46, 33, 38, ]
  - [1440000, 1.05879503296566, 2.13771395625316, 45, 47, 35, 39, ]
  - [1450000, 1.03676566898826, 2.13667906526159, 47, 48, 35, 39, ]
  - [1460000, 1.11327453717527, 2.11310117215081, 47, 50, 35, 41, ]
  - [1470000, 0.917360226050523, 2.13683882878046, 49, 50, 37, 41, ]
  - [1480000, 1.10081326090832, 2.22388683657806, 51, 50, 38, 42, ]
  - [1490000, 1.066906715486, 2.15478214749095, 52, 50, 39, 44, ]
  - [1500000, 0.7986001048014, 2.16631806296036, 52, 50, 39, 45, ]
  - [1510000, 0.982031532760201, 2.16482463844125, 55, 51, 40, 46, ]
  - [1520000, 1.11859762015548, 2.18336955050339, 57, 52, 40, 47, ]
  - [1530000, 0.938538681284679, 2.20641505445749, 58, 53, 42, 48, ]
  - [1540000, 0.895365339116596, 2.18469090123946, 59, 53, 42, 48, ]
  - [1550000, 0.993916959616581, 2.1824458591697, 60, 54, 44, 53, ]
  - [1560000, 1.19495844081735, 2.21158530182035, 61, 57, 45, 55, ]
  - [1570000, 1.01202408864407, 2.17069090780698, 62, 59, 46, 55, ]
  - [1580000, 0.890946277486093, 2.16156548134172, 62, 61, 47, 58, ]
  - [1590000, 1.22610227777575, 2.16093798545572, 63, 61, 47, 59, ]
  - [1600000, 1.07453009816809, 2.20444616198423, 65, 62, 49, 59, ]
  - [1610000, 1.08171765973718, 2.19162787002212, 67, 63, 49, 59, ]
  - [1620000, 1.06751442387005, 2.14254106848054, 68, 63, 50, 60, ]
  - [1630000, 0.886425014561529, 2.16776012662188, 69, 64, 50, 60, ]
  - [1640000, 0.898348842297487, 2.19793385314539, 70, 64, 51, 60, ]
  - [1650000, 0.867886102372415, 2.2077138172223, 70, 65, 51, 60, ]
  - [1660000, 1.15861333923748, 2.17523978766138, 70, 67, 52, 61, ]
  - [1670000, 1.09977003266124, 2.14068356341577, 70, 70, 52, 62, ]
  - [1680000, 0.874115500954115, 2.13460558221855, 70, 71, 53, 63, ]
  - [1690000, 1.02268160705021, 2.15397695298093, 71, 72, 53, 64, ]
  - [1700000, 1.07788853579001, 2.12017283275354, 73, 73, 53, 65, ]
  - [1710000, 0.913305545656076, 2.13900904617264, 76, 75, 54, 68, ]
  - [1720000, 0.859217111269705, 2.1569115542447, 77, 75, 54, 68, ]
  - [1730000, 1.02023893214877, 2.17327034733552, 77, 75, 55, 69, ]
  - [1740000, 1.03417573644922, 2.13474738238223, 78, 75, 56, 70, ]
  - [1750000, 1.02942594844422, 2.12756585589803, 79, 75, 57, 70, ]
  - [1760000, 1.0579203308862, 2.15141206826065, 79, 77, 57, 71, ]
  - [1770000, 0.956131926608361, 2.10078009915146, 79, 77, 59, 71, ]
  - [1780000, 0.926190407586454, 2.18047318912758, 79, 78, 60, 73, ]
  - [1790000, 0.895049362262839, 2.14546996180823, 82, 78, 62, 73, ]
  - [1800000, 1.06227414892212, 2.14330331572613, 82, 79, 62, 73, ]
  - [1810000, 0.922324015905188, 2.17136356950867, 82, 80, 63, 73, ]
  - [1820000, 0.908191953971977, 2.19132092033082, 83, 80, 64, 74, ]
  - [1830000, 1.11647897532403, 2.17380840865543, 84, 81, 66, 75, ]
  - [1840000, 0.881544115401001, 2.16059126461397, 84, 83, 66, 75, ]
  - [1850000, 0.841607589562095, 2.20638186315704, 84, 86, 69, 75, ]
  - [1860000, 1.10544375705616, 2.19714126058949, 85, 86, 69, 75, ]
  - [1870000, 0.911919261101813, 2.19980261585847, 87, 86, 70, 75, ]
  - [1880000, 1.03367081919874, 2.18248033542555, 87, 87, 70, 76, ]
  - [1890000, 1.0467259002926, 2.16074386859549, 87, 90, 70, 77, ]
  - [1900000, 0.998233397378406, 2.16872962757965, 88, 90, 71, 77, ]
  - [1910000, 0.962380224434752, 2.21012553821172, 90, 90, 71, 79, ]
  - [1920000, 0.985029540581111, 2.16556361352683, 91, 91, 73, 79, ]
  - [1930000, 1.01007522760737, 2.18717517363668, 92, 92, 73, 80, ]
  - [1940000, 1.15591157305523, 2.24083046232321, 94, 94, 74, 80, ]
  - [1950000, 0.939548614370353, 2.22500997568991, 95, 95, 74, 81, ]
  - [1960000, 1.25693004985891, 2.22743365498971, 96, 95, 76, 81, ]
  - [1970000, 1.09412168610796, 2.18060836499459, 98, 95, 77, 81, ]
  - [1980000, 0.98138556454767, 2.16886370932146, 98, 97, 78, 83, ]
  - [1990000, 0.992775314207884, 2.19403199820908, 100, 100, 78, 84, ]
  - [2000000, 0.978085920705136, 2.1612697135379, 101, 100, 78, 86, ]
...
Loop time of 205.402 on 10 procs for 1000000 steps with 80 atoms

Performance: 420639.002 tau/day, 4868.507 timesteps/s, 389.481 katom-step/s
100.0% CPU use with 10 MPI tasks x 1 OpenMP threads

MPI task timing breakdown:
Section |  min time  |  avg time  |  max time  |%varavg| %total
---------------------------------------------------------------
Pair    | 0.053969   | 6.0989     | 57.952     | 700.5 |  2.97
Bond    | 0.079831   | 0.83294    | 6.6989     | 216.1 |  0.41
Neigh   | 0.12326    | 0.15154    | 0.16435    |   3.7 |  0.07
Comm    | 0.22538    | 6.8332     | 63.893     | 728.1 |  3.33
Output  | 0.11918    | 0.12528    | 0.14846    |   2.3 |  0.06
Modify  | 136.02     | 189.55     | 203        | 194.0 | 92.28
Other   |            | 1.807      |            |       |  0.88

Nlocal:              8 ave          80 max           0 min
Histogram: 9 0 0 0 0 0 0 0 0 1
Nghost:              8 ave          80 max           0 min
Histogram: 9 0 0 0 0 0 0 0 0 1
Neighs:          300.3 ave        3003 max           0 min
Histogram: 9 0 0 0 0 0 0 0 0 1
FullNghs:            0 ave           0 max           0 min
Histogram: 10 0 0 0 0 0 0 0 0 0

Total # of neighbors = 3003
Ave neighs/atom = 37.5375
Ave special neighs/atom = 5.85
Neighbor list builds = 2063
Dangerous builds = 0

#####################################################
# Nested loop to change one random nucleosome's type every 10,000 steps
variable total_steps equal 1000000
variable steps_per_iteration equal 10000
variable iterations equal ${total_steps}/${steps_per_iteration}
variable iterations equal 1000000/${steps_per_iteration}
variable iterations equal 1000000/10000

label loopnucleosome

    # Generate a random atom index
    variable random_index equal floor(random(1,80,27939))

    # Generate a random type (assuming types 1 to 3)
    variable random_type equal floor(random(1,4,489))

    # Change the atom's type to the random type
    set atom ${random_index} type ${random_type}
    set atom 64 type ${random_type}
    set atom 64 type 1
Setting atom values ...
  1 settings made for type

    # Run for 10,000 steps
    run ${steps_per_iteration}
    run 10000
Generated 0 of 3 mixed pair_coeff terms from geometric mixing rule
Per MPI rank memory allocation (min/avg/max) = 9.913 | 10.53 | 12.5 Mbytes
---
keywords: ['Step', 'Temp', 'c_R2[0]', 'f_4[1]', 'f_4[2]', 'f_4[3]', 'f_4[4]', ]
data:
  - [2000000, 0.978085920705136, 2.1612697135379, 101, 100, 78, 86, ]
  - [2010000, 1.04896049426035, 2.18083049725826, 102, 103, 78, 87, ]
...
Loop time of 2.23249 on 10 procs for 10000 steps with 80 atoms

Performance: 387012.011 tau/day, 4479.306 timesteps/s, 358.344 katom-step/s
100.0% CPU use with 10 MPI tasks x 1 OpenMP threads

MPI task timing breakdown:
Section |  min time  |  avg time  |  max time  |%varavg| %total
---------------------------------------------------------------
Pair    | 0.0004884  | 0.070005   | 0.69471    |  78.7 |  3.14
Bond    | 0.000745   | 0.0090514  | 0.082882   |  25.9 |  0.41
Neigh   | 0.0014513  | 0.0017555  | 0.0018983  |   0.4 |  0.08
Comm    | 0.0021794  | 0.08346    | 0.7957     |  82.2 |  3.74
Output  | 0.0010236  | 0.0010623  | 0.0011094  |   0.1 |  0.05
Modify  | 1.4143     | 2.0482     | 2.2078     |  22.1 | 91.74
Other   |            | 0.01899    |            |       |  0.85

Nlocal:              8 ave          80 max           0 min
Histogram: 9 0 0 0 0 0 0 0 0 1
Nghost:              8 ave          80 max           0 min
Histogram: 9 0 0 0 0 0 0 0 0 1
Neighs:          300.3 ave        3003 max           0 min
Histogram: 9 0 0 0 0 0 0 0 0 1
FullNghs:            0 ave           0 max           0 min
Histogram: 10 0 0 0 0 0 0 0 0 0

Total # of neighbors = 3003
Ave neighs/atom = 37.5375
Ave special neighs/atom = 5.85
Neighbor list builds = 21
Dangerous builds = 0

    # Decrease the iterations counter using a separate variable for the decrement
    variable new_iterations equal ${iterations}-1
    variable new_iterations equal 100-1
    variable iterations equal ${new_iterations}
    variable iterations equal 99

    # If iterations counter is not zero, continue the loop
    if "${iterations} > 0" then "jump SELF loopnucleosome"
jump SELF loopnucleosome

    # Generate a random atom index
    variable random_index equal floor(random(1,80,27939))

    # Generate a random type (assuming types 1 to 3)
    variable random_type equal floor(random(1,4,489))

    # Change the atom's type to the random type
    set atom ${random_index} type ${random_type}
    set atom 69 type ${random_type}
    set atom 69 type 3
Setting atom values ...
  1 settings made for type

    # Run for 10,000 steps
    run ${steps_per_iteration}
    run 10000
Generated 0 of 3 mixed pair_coeff terms from geometric mixing rule
Per MPI rank memory allocation (min/avg/max) = 9.913 | 10.53 | 12.5 Mbytes
---
keywords: ['Step', 'Temp', 'c_R2[0]', 'f_4[1]', 'f_4[2]', 'f_4[3]', 'f_4[4]', ]
data:
  - [2010000, 1.04896049426035, 2.18083049725826, 102, 103, 78, 87, ]
  - [2020000, 1.03101598622257, 2.19999287346684, 102, 104, 78, 87, ]
...
Loop time of 2.2743 on 10 procs for 10000 steps with 80 atoms

Performance: 379897.414 tau/day, 4396.961 timesteps/s, 351.757 katom-step/s
99.9% CPU use with 10 MPI tasks x 1 OpenMP threads

MPI task timing breakdown:
Section |  min time  |  avg time  |  max time  |%varavg| %total
---------------------------------------------------------------
Pair    | 0.0004839  | 0.070787   | 0.70272    |  79.2 |  3.11
Bond    | 0.0006469  | 0.0091206  | 0.083888   |  26.1 |  0.40
Neigh   | 0.0012318  | 0.0015487  | 0.0017073  |   0.4 |  0.07
Comm    | 0.002059   | 0.084537   | 0.80575    |  82.7 |  3.72
Output  | 0.0010278  | 0.0010675  | 0.0011119  |   0.1 |  0.05
Modify  | 1.4482     | 2.0896     | 2.2512     |  22.2 | 91.88
Other   |            | 0.01766    |            |       |  0.78

Nlocal:              8 ave          80 max           0 min
Histogram: 9 0 0 0 0 0 0 0 0 1
Nghost:              8 ave          80 max           0 min
Histogram: 9 0 0 0 0 0 0 0 0 1
Neighs:          300.3 ave        3003 max           0 min
Histogram: 9 0 0 0 0 0 0 0 0 1
FullNghs:            0 ave           0 max           0 min
Histogram: 10 0 0 0 0 0 0 0 0 0

Total # of neighbors = 3003
Ave neighs/atom = 37.5375
Ave special neighs/atom = 5.85
Neighbor list builds = 17
Dangerous builds = 0

    # Decrease the iterations counter using a separate variable for the decrement
    variable new_iterations equal ${iterations}-1
    variable new_iterations equal 99-1
    variable iterations equal ${new_iterations}
    variable iterations equal 98

    # If iterations counter is not zero, continue the loop
    if "${iterations} > 0" then "jump SELF loopnucleosome"
jump SELF loopnucleosome

    # Generate a random atom index
    variable random_index equal floor(random(1,80,27939))

    # Generate a random type (assuming types 1 to 3)
    variable random_type equal floor(random(1,4,489))

    # Change the atom's type to the random type
    set atom ${random_index} type ${random_type}
    set atom 19 type ${random_type}
    set atom 19 type 2
Setting atom values ...
  1 settings made for type

    # Run for 10,000 steps
    run ${steps_per_iteration}
    run 10000
Generated 0 of 3 mixed pair_coeff terms from geometric mixing rule
Per MPI rank memory allocation (min/avg/max) = 9.913 | 10.53 | 12.5 Mbytes
---
keywords: ['Step', 'Temp', 'c_R2[0]', 'f_4[1]', 'f_4[2]', 'f_4[3]', 'f_4[4]', ]
data:
  - [2020000, 1.03101598622257, 2.19999287346684, 102, 104, 78, 87, ]
  - [2030000, 0.962668206316396, 2.1917286240948, 103, 106, 78, 89, ]
...
Loop time of 2.2981 on 10 procs for 10000 steps with 80 atoms

Performance: 375962.803 tau/day, 4351.421 timesteps/s, 348.114 katom-step/s
100.0% CPU use with 10 MPI tasks x 1 OpenMP threads

MPI task timing breakdown:
Section |  min time  |  avg time  |  max time  |%varavg| %total
---------------------------------------------------------------
Pair    | 0.000442   | 0.07327    | 0.7274     |  80.6 |  3.19
Bond    | 0.0006485  | 0.0092484  | 0.084972   |  26.2 |  0.40
Neigh   | 0.0014968  | 0.0018121  | 0.0019743  |   0.4 |  0.08
Comm    | 0.0020759  | 0.087272   | 0.83235    |  84.1 |  3.80
Output  | 0.0010406  | 0.0010766  | 0.0011356  |   0.1 |  0.05
Modify  | 1.4454     | 2.1076     | 2.275      |  22.8 | 91.71
Other   |            | 0.01779    |            |       |  0.77

Nlocal:              8 ave          80 max           0 min
Histogram: 9 0 0 0 0 0 0 0 0 1
Nghost:              8 ave          80 max           0 min
Histogram: 9 0 0 0 0 0 0 0 0 1
Neighs:          300.3 ave        3003 max           0 min
Histogram: 9 0 0 0 0 0 0 0 0 1
FullNghs:            0 ave           0 max           0 min
Histogram: 10 0 0 0 0 0 0 0 0 0

Total # of neighbors = 3003
Ave neighs/atom = 37.5375
Ave special neighs/atom = 5.85
Neighbor list builds = 21
Dangerous builds = 0

    # Decrease the iterations counter using a separate variable for the decrement
    variable new_iterations equal ${iterations}-1
    variable new_iterations equal 98-1
    variable iterations equal ${new_iterations}
    variable iterations equal 97

    # If iterations counter is not zero, continue the loop
    if "${iterations} > 0" then "jump SELF loopnucleosome"
jump SELF loopnucleosome

    # Generate a random atom index
    variable random_index equal floor(random(1,80,27939))

    # Generate a random type (assuming types 1 to 3)
    variable random_type equal floor(random(1,4,489))

    # Change the atom's type to the random type
    set atom ${random_index} type ${random_type}
    set atom 62 type ${random_type}
    set atom 62 type 2
Setting atom values ...
  1 settings made for type

    # Run for 10,000 steps
    run ${steps_per_iteration}
    run 10000
Generated 0 of 3 mixed pair_coeff terms from geometric mixing rule
Per MPI rank memory allocation (min/avg/max) = 9.913 | 10.53 | 12.5 Mbytes
---
keywords: ['Step', 'Temp', 'c_R2[0]', 'f_4[1]', 'f_4[2]', 'f_4[3]', 'f_4[4]', ]
data:
  - [2030000, 0.962668206316396, 2.1917286240948, 103, 106, 78, 89, ]
  - [2040000, 0.955457932023926, 2.28270741539151, 104, 106, 80, 90, ]
...
Loop time of 2.27382 on 10 procs for 10000 steps with 80 atoms

Performance: 379976.964 tau/day, 4397.882 timesteps/s, 351.831 katom-step/s
100.0% CPU use with 10 MPI tasks x 1 OpenMP threads

MPI task timing breakdown:
Section |  min time  |  avg time  |  max time  |%varavg| %total
---------------------------------------------------------------
Pair    | 0.0004685  | 0.071462   | 0.70946    |  79.6 |  3.14
Bond    | 0.000679   | 0.0091648  | 0.084227   |  26.1 |  0.40
Neigh   | 0.0014399  | 0.0017289  | 0.0018759  |   0.4 |  0.08
Comm    | 0.0023015  | 0.085386   | 0.81323    |  83.0 |  3.76
Output  | 0.0010392  | 0.0010783  | 0.0011319  |   0.1 |  0.05
Modify  | 1.4402     | 2.0871     | 2.2503     |  22.4 | 91.79
Other   |            | 0.01786    |            |       |  0.79

Nlocal:              8 ave          80 max           0 min
Histogram: 9 0 0 0 0 0 0 0 0 1
Nghost:              8 ave          80 max           0 min
Histogram: 9 0 0 0 0 0 0 0 0 1
Neighs:          300.3 ave        3003 max           0 min
Histogram: 9 0 0 0 0 0 0 0 0 1
FullNghs:            0 ave           0 max           0 min
Histogram: 10 0 0 0 0 0 0 0 0 0

Total # of neighbors = 3003
Ave neighs/atom = 37.5375
Ave special neighs/atom = 5.85
Neighbor list builds = 21
Dangerous builds = 0

    # Decrease the iterations counter using a separate variable for the decrement
    variable new_iterations equal ${iterations}-1
    variable new_iterations equal 97-1
    variable iterations equal ${new_iterations}
    variable iterations equal 96

    # If iterations counter is not zero, continue the loop
    if "${iterations} > 0" then "jump SELF loopnucleosome"
jump SELF loopnucleosome

    # Generate a random atom index
    variable random_index equal floor(random(1,80,27939))

    # Generate a random type (assuming types 1 to 3)
    variable random_type equal floor(random(1,4,489))

    # Change the atom's type to the random type
    set atom ${random_index} type ${random_type}
    set atom 3 type ${random_type}
    set atom 3 type 2
Setting atom values ...
  1 settings made for type

    # Run for 10,000 steps
    run ${steps_per_iteration}
    run 10000
Generated 0 of 3 mixed pair_coeff terms from geometric mixing rule
Per MPI rank memory allocation (min/avg/max) = 9.913 | 10.53 | 12.5 Mbytes
---
keywords: ['Step', 'Temp', 'c_R2[0]', 'f_4[1]', 'f_4[2]', 'f_4[3]', 'f_4[4]', ]
data:
  - [2040000, 0.955457932023926, 2.28270741539151, 104, 106, 80, 90, ]
  - [2050000, 0.889098407350514, 2.16849352962029, 105, 109, 81, 92, ]
...
Loop time of 1.74491 on 10 procs for 10000 steps with 80 atoms

Performance: 495155.528 tau/day, 5730.967 timesteps/s, 458.477 katom-step/s
99.9% CPU use with 10 MPI tasks x 1 OpenMP threads

MPI task timing breakdown:
Section |  min time  |  avg time  |  max time  |%varavg| %total
---------------------------------------------------------------
Pair    | 0.0004767  | 0.054841   | 0.54333    |  69.5 |  3.14
Bond    | 0.0006877  | 0.0073922  | 0.066991   |  23.1 |  0.42
Neigh   | 0.0012894  | 0.0015728  | 0.0016724  |   0.4 |  0.09
Comm    | 0.0022081  | 0.066111   | 0.62579    |  72.6 |  3.79
Output  | 0.0007545  | 0.00079018 | 0.0008414  |   0.0 |  0.05
Modify  | 1.0998     | 1.5973     | 1.7228     |  19.7 | 91.54
Other   |            | 0.01691    |            |       |  0.97

Nlocal:              8 ave          80 max           0 min
Histogram: 9 0 0 0 0 0 0 0 0 1
Nghost:              8 ave          80 max           0 min
Histogram: 9 0 0 0 0 0 0 0 0 1
Neighs:          300.3 ave        3003 max           0 min
Histogram: 9 0 0 0 0 0 0 0 0 1
FullNghs:            0 ave           0 max           0 min
Histogram: 10 0 0 0 0 0 0 0 0 0

Total # of neighbors = 3003
Ave neighs/atom = 37.5375
Ave special neighs/atom = 5.85
Neighbor list builds = 24
Dangerous builds = 0

    # Decrease the iterations counter using a separate variable for the decrement
    variable new_iterations equal ${iterations}-1
    variable new_iterations equal 96-1
    variable iterations equal ${new_iterations}
    variable iterations equal 95

    # If iterations counter is not zero, continue the loop
    if "${iterations} > 0" then "jump SELF loopnucleosome"
jump SELF loopnucleosome

    # Generate a random atom index
    variable random_index equal floor(random(1,80,27939))

    # Generate a random type (assuming types 1 to 3)
    variable random_type equal floor(random(1,4,489))

    # Change the atom's type to the random type
    set atom ${random_index} type ${random_type}
    set atom 30 type ${random_type}
    set atom 30 type 1
Setting atom values ...
  1 settings made for type

    # Run for 10,000 steps
    run ${steps_per_iteration}
    run 10000
Generated 0 of 3 mixed pair_coeff terms from geometric mixing rule
Per MPI rank memory allocation (min/avg/max) = 9.913 | 10.53 | 12.5 Mbytes
---
keywords: ['Step', 'Temp', 'c_R2[0]', 'f_4[1]', 'f_4[2]', 'f_4[3]', 'f_4[4]', ]
data:
  - [2050000, 0.889098407350514, 2.16849352962029, 105, 109, 81, 92, ]
  - [2060000, 1.02833299202023, 2.18023966199916, 106, 109, 82, 92, ]
...
Loop time of 1.9804 on 10 procs for 10000 steps with 80 atoms

Performance: 436276.062 tau/day, 5049.491 timesteps/s, 403.959 katom-step/s
100.0% CPU use with 10 MPI tasks x 1 OpenMP threads

MPI task timing breakdown:
Section |  min time  |  avg time  |  max time  |%varavg| %total
---------------------------------------------------------------
Pair    | 0.0004492  | 0.061568   | 0.6104     |  73.7 |  3.11
Bond    | 0.0006771  | 0.0082024  | 0.074621   |  24.4 |  0.41
Neigh   | 0.0012631  | 0.0015787  | 0.0017162  |   0.4 |  0.08
Comm    | 0.00206    | 0.074191   | 0.70318    |  77.0 |  3.75
Output  | 0.0009523  | 0.00098906 | 0.0010358  |   0.0 |  0.05
Modify  | 1.2561     | 1.8157     | 1.9574     |  20.8 | 91.68
Other   |            | 0.01815    |            |       |  0.92

Nlocal:              8 ave          80 max           0 min
Histogram: 9 0 0 0 0 0 0 0 0 1
Nghost:              8 ave          80 max           0 min
Histogram: 9 0 0 0 0 0 0 0 0 1
Neighs:          300.3 ave        3003 max           0 min
Histogram: 9 0 0 0 0 0 0 0 0 1
FullNghs:            0 ave           0 max           0 min
Histogram: 10 0 0 0 0 0 0 0 0 0

Total # of neighbors = 3003
Ave neighs/atom = 37.5375
Ave special neighs/atom = 5.85
Neighbor list builds = 19
Dangerous builds = 0

    # Decrease the iterations counter using a separate variable for the decrement
    variable new_iterations equal ${iterations}-1
    variable new_iterations equal 95-1
    variable iterations equal ${new_iterations}
    variable iterations equal 94

    # If iterations counter is not zero, continue the loop
    if "${iterations} > 0" then "jump SELF loopnucleosome"
jump SELF loopnucleosome

    # Generate a random atom index
    variable random_index equal floor(random(1,80,27939))

    # Generate a random type (assuming types 1 to 3)
    variable random_type equal floor(random(1,4,489))

    # Change the atom's type to the random type
    set atom ${random_index} type ${random_type}
    set atom 17 type ${random_type}
    set atom 17 type 3
Setting atom values ...
  1 settings made for type

    # Run for 10,000 steps
    run ${steps_per_iteration}
    run 10000
Generated 0 of 3 mixed pair_coeff terms from geometric mixing rule
Per MPI rank memory allocation (min/avg/max) = 9.913 | 10.53 | 12.5 Mbytes
---
keywords: ['Step', 'Temp', 'c_R2[0]', 'f_4[1]', 'f_4[2]', 'f_4[3]', 'f_4[4]', ]
data:
  - [2060000, 1.02833299202023, 2.18023966199916, 106, 109, 82, 92, ]
  - [2070000, 1.07900380620352, 2.22231986078519, 108, 111, 83, 92, ]
...
Loop time of 1.8592 on 10 procs for 10000 steps with 80 atoms

Performance: 464716.019 tau/day, 5378.658 timesteps/s, 430.293 katom-step/s
100.0% CPU use with 10 MPI tasks x 1 OpenMP threads

MPI task timing breakdown:
Section |  min time  |  avg time  |  max time  |%varavg| %total
---------------------------------------------------------------
Pair    | 0.0005066  | 0.059077   | 0.58565    |  72.2 |  3.18
Bond    | 0.0006916  | 0.007921   | 0.071642   |  23.9 |  0.43
Neigh   | 0.0014354  | 0.0017462  | 0.0018727  |   0.4 |  0.09
Comm    | 0.0023881  | 0.071415   | 0.67497    |  75.3 |  3.84
Output  | 0.0008546  | 0.00089318 | 0.0009551  |   0.0 |  0.05
Modify  | 1.1644     | 1.7006     | 1.8358     |  20.5 | 91.47
Other   |            | 0.01758    |            |       |  0.95

Nlocal:              8 ave          80 max           0 min
Histogram: 9 0 0 0 0 0 0 0 0 1
Nghost:              8 ave          80 max           0 min
Histogram: 9 0 0 0 0 0 0 0 0 1
Neighs:          300.3 ave        3003 max           0 min
Histogram: 9 0 0 0 0 0 0 0 0 1
FullNghs:            0 ave           0 max           0 min
Histogram: 10 0 0 0 0 0 0 0 0 0

Total # of neighbors = 3003
Ave neighs/atom = 37.5375
Ave special neighs/atom = 5.85
Neighbor list builds = 24
Dangerous builds = 0

    # Decrease the iterations counter using a separate variable for the decrement
    variable new_iterations equal ${iterations}-1
    variable new_iterations equal 94-1
    variable iterations equal ${new_iterations}
    variable iterations equal 93

    # If iterations counter is not zero, continue the loop
    if "${iterations} > 0" then "jump SELF loopnucleosome"
jump SELF loopnucleosome

    # Generate a random atom index
    variable random_index equal floor(random(1,80,27939))

    # Generate a random type (assuming types 1 to 3)
    variable random_type equal floor(random(1,4,489))

    # Change the atom's type to the random type
    set atom ${random_index} type ${random_type}
    set atom 32 type ${random_type}
    set atom 32 type 2
Setting atom values ...
  1 settings made for type

    # Run for 10,000 steps
    run ${steps_per_iteration}
    run 10000
Generated 0 of 3 mixed pair_coeff terms from geometric mixing rule
Per MPI rank memory allocation (min/avg/max) = 9.913 | 10.53 | 12.5 Mbytes
---
keywords: ['Step', 'Temp', 'c_R2[0]', 'f_4[1]', 'f_4[2]', 'f_4[3]', 'f_4[4]', ]
data:
  - [2070000, 1.07900380620352, 2.22231986078519, 108, 111, 83, 92, ]
  - [2080000, 0.886670392401314, 2.11051463972034, 109, 111, 83, 92, ]
...
Loop time of 2.05404 on 10 procs for 10000 steps with 80 atoms

Performance: 420634.549 tau/day, 4868.455 timesteps/s, 389.476 katom-step/s
100.0% CPU use with 10 MPI tasks x 1 OpenMP threads

MPI task timing breakdown:
Section |  min time  |  avg time  |  max time  |%varavg| %total
---------------------------------------------------------------
Pair    | 0.0005388  | 0.065604   | 0.65077    |  76.2 |  3.19
Bond    | 0.0007544  | 0.0085534  | 0.077958   |  25.0 |  0.42
Neigh   | 0.0009796  | 0.0012245  | 0.0013404  |   0.4 |  0.06
Comm    | 0.0022198  | 0.078461   | 0.7466     |  79.5 |  3.82
Output  | 0.0010219  | 0.0010606  | 0.0011062  |   0.1 |  0.05
Modify  | 1.2871     | 1.8814     | 2.0307     |  21.7 | 91.59
Other   |            | 0.01776    |            |       |  0.86

Nlocal:              8 ave          80 max           0 min
Histogram: 9 0 0 0 0 0 0 0 0 1
Nghost:              8 ave          80 max           0 min
Histogram: 9 0 0 0 0 0 0 0 0 1
Neighs:          300.3 ave        3003 max           0 min
Histogram: 9 0 0 0 0 0 0 0 0 1
FullNghs:            0 ave           0 max           0 min
Histogram: 10 0 0 0 0 0 0 0 0 0

Total # of neighbors = 3003
Ave neighs/atom = 37.5375
Ave special neighs/atom = 5.85
Neighbor list builds = 15
Dangerous builds = 0

    # Decrease the iterations counter using a separate variable for the decrement
    variable new_iterations equal ${iterations}-1
    variable new_iterations equal 93-1
    variable iterations equal ${new_iterations}
    variable iterations equal 92

    # If iterations counter is not zero, continue the loop
    if "${iterations} > 0" then "jump SELF loopnucleosome"
jump SELF loopnucleosome

    # Generate a random atom index
    variable random_index equal floor(random(1,80,27939))

    # Generate a random type (assuming types 1 to 3)
    variable random_type equal floor(random(1,4,489))

    # Change the atom's type to the random type
    set atom ${random_index} type ${random_type}
    set atom 48 type ${random_type}
    set atom 48 type 2
Setting atom values ...
  1 settings made for type

    # Run for 10,000 steps
    run ${steps_per_iteration}
    run 10000
Generated 0 of 3 mixed pair_coeff terms from geometric mixing rule
Per MPI rank memory allocation (min/avg/max) = 9.913 | 10.53 | 12.5 Mbytes
---
keywords: ['Step', 'Temp', 'c_R2[0]', 'f_4[1]', 'f_4[2]', 'f_4[3]', 'f_4[4]', ]
data:
  - [2080000, 0.886670392401314, 2.11051463972034, 109, 111, 83, 92, ]
  - [2090000, 0.834973707462274, 2.17037497362102, 109, 112, 84, 92, ]
...
Loop time of 1.56807 on 10 procs for 10000 steps with 80 atoms

Performance: 550997.202 tau/day, 6377.282 timesteps/s, 510.183 katom-step/s
100.0% CPU use with 10 MPI tasks x 1 OpenMP threads

MPI task timing breakdown:
Section |  min time  |  avg time  |  max time  |%varavg| %total
---------------------------------------------------------------
Pair    | 0.0004752  | 0.049996   | 0.49505    |  66.3 |  3.19
Bond    | 0.000624   | 0.0068631  | 0.061762   |  22.1 |  0.44
Neigh   | 0.0007893  | 0.0010409  | 0.0011122  |   0.4 |  0.07
Comm    | 0.0020694  | 0.060684   | 0.57238    |  69.3 |  3.87
Output  | 0.0006794  | 0.00071692 | 0.0007606  |   0.0 |  0.05
Modify  | 0.97607    | 1.4314     | 1.5458     |  19.0 | 91.28
Other   |            | 0.01741    |            |       |  1.11

Nlocal:              8 ave          80 max           0 min
Histogram: 9 0 0 0 0 0 0 0 0 1
Nghost:              8 ave          80 max           0 min
Histogram: 9 0 0 0 0 0 0 0 0 1
Neighs:          300.3 ave        3003 max           0 min
Histogram: 9 0 0 0 0 0 0 0 0 1
FullNghs:            0 ave           0 max           0 min
Histogram: 10 0 0 0 0 0 0 0 0 0

Total # of neighbors = 3003
Ave neighs/atom = 37.5375
Ave special neighs/atom = 5.85
Neighbor list builds = 16
Dangerous builds = 0

    # Decrease the iterations counter using a separate variable for the decrement
    variable new_iterations equal ${iterations}-1
    variable new_iterations equal 92-1
    variable iterations equal ${new_iterations}
    variable iterations equal 91

    # If iterations counter is not zero, continue the loop
    if "${iterations} > 0" then "jump SELF loopnucleosome"
jump SELF loopnucleosome

    # Generate a random atom index
    variable random_index equal floor(random(1,80,27939))

    # Generate a random type (assuming types 1 to 3)
    variable random_type equal floor(random(1,4,489))

    # Change the atom's type to the random type
    set atom ${random_index} type ${random_type}
    set atom 66 type ${random_type}
    set atom 66 type 3
Setting atom values ...
  1 settings made for type

    # Run for 10,000 steps
    run ${steps_per_iteration}
    run 10000
Generated 0 of 3 mixed pair_coeff terms from geometric mixing rule
Per MPI rank memory allocation (min/avg/max) = 9.913 | 10.53 | 12.5 Mbytes
---
keywords: ['Step', 'Temp', 'c_R2[0]', 'f_4[1]', 'f_4[2]', 'f_4[3]', 'f_4[4]', ]
data:
  - [2090000, 0.834973707462274, 2.17037497362102, 109, 112, 84, 92, ]
  - [2100000, 1.04380006525716, 2.2187799745697, 110, 113, 84, 93, ]
...
Loop time of 1.66641 on 10 procs for 10000 steps with 80 atoms

Performance: 518480.120 tau/day, 6000.927 timesteps/s, 480.074 katom-step/s
100.0% CPU use with 10 MPI tasks x 1 OpenMP threads

MPI task timing breakdown:
Section |  min time  |  avg time  |  max time  |%varavg| %total
---------------------------------------------------------------
Pair    | 0.0004209  | 0.05298    | 0.52496    |  68.4 |  3.18
Bond    | 0.0005698  | 0.0071784  | 0.065136   |  22.8 |  0.43
Neigh   | 0.0012163  | 0.0015013  | 0.0015867  |   0.4 |  0.09
Comm    | 0.0020236  | 0.064239   | 0.60662    |  71.4 |  3.85
Output  | 0.0008073  | 0.00084807 | 0.0008949  |   0.0 |  0.05
Modify  | 1.0416     | 1.5236     | 1.6459     |  19.5 | 91.43
Other   |            | 0.01608    |            |       |  0.97

Nlocal:              8 ave          80 max           0 min
Histogram: 9 0 0 0 0 0 0 0 0 1
Nghost:            7.8 ave          78 max           0 min
Histogram: 9 0 0 0 0 0 0 0 0 1
Neighs:          300.3 ave        3003 max           0 min
Histogram: 9 0 0 0 0 0 0 0 0 1
FullNghs:            0 ave           0 max           0 min
Histogram: 10 0 0 0 0 0 0 0 0 0

Total # of neighbors = 3003
Ave neighs/atom = 37.5375
Ave special neighs/atom = 5.85
Neighbor list builds = 22
Dangerous builds = 0

    # Decrease the iterations counter using a separate variable for the decrement
    variable new_iterations equal ${iterations}-1
    variable new_iterations equal 91-1
    variable iterations equal ${new_iterations}
    variable iterations equal 90

    # If iterations counter is not zero, continue the loop
    if "${iterations} > 0" then "jump SELF loopnucleosome"
jump SELF loopnucleosome

    # Generate a random atom index
    variable random_index equal floor(random(1,80,27939))

    # Generate a random type (assuming types 1 to 3)
    variable random_type equal floor(random(1,4,489))

    # Change the atom's type to the random type
    set atom ${random_index} type ${random_type}
    set atom 13 type ${random_type}
    set atom 13 type 3
Setting atom values ...
  1 settings made for type

    # Run for 10,000 steps
    run ${steps_per_iteration}
    run 10000
Generated 0 of 3 mixed pair_coeff terms from geometric mixing rule
Per MPI rank memory allocation (min/avg/max) = 9.913 | 10.53 | 12.5 Mbytes
---
keywords: ['Step', 'Temp', 'c_R2[0]', 'f_4[1]', 'f_4[2]', 'f_4[3]', 'f_4[4]', ]
data:
  - [2100000, 1.04380006525716, 2.2187799745697, 110, 113, 84, 93, ]
  - [2110000, 0.948784053555323, 2.14843945871999, 110, 115, 84, 94, ]
...
Loop time of 1.97062 on 10 procs for 10000 steps with 80 atoms

Performance: 438441.530 tau/day, 5074.555 timesteps/s, 405.964 katom-step/s
100.0% CPU use with 10 MPI tasks x 1 OpenMP threads

MPI task timing breakdown:
Section |  min time  |  avg time  |  max time  |%varavg| %total
---------------------------------------------------------------
Pair    | 0.0004427  | 0.061745   | 0.6122     |  73.8 |  3.13
Bond    | 0.0006133  | 0.0081517  | 0.074465   |  24.5 |  0.41
Neigh   | 0.0012532  | 0.0015607  | 0.0016844  |   0.4 |  0.08
Comm    | 0.0021657  | 0.074265   | 0.70443    |  77.1 |  3.77
Output  | 0.0008497  | 0.00088747 | 0.000934   |   0.0 |  0.05
Modify  | 1.2457     | 1.8063     | 1.9478     |  20.8 | 91.66
Other   |            | 0.01775    |            |       |  0.90

Nlocal:              8 ave          80 max           0 min
Histogram: 9 0 0 0 0 0 0 0 0 1
Nghost:            7.7 ave          77 max           0 min
Histogram: 9 0 0 0 0 0 0 0 0 1
Neighs:          300.3 ave        3003 max           0 min
Histogram: 9 0 0 0 0 0 0 0 0 1
FullNghs:            0 ave           0 max           0 min
Histogram: 10 0 0 0 0 0 0 0 0 0

Total # of neighbors = 3003
Ave neighs/atom = 37.5375
Ave special neighs/atom = 5.85
Neighbor list builds = 20
Dangerous builds = 0

    # Decrease the iterations counter using a separate variable for the decrement
    variable new_iterations equal ${iterations}-1
    variable new_iterations equal 90-1
    variable iterations equal ${new_iterations}
    variable iterations equal 89

    # If iterations counter is not zero, continue the loop
    if "${iterations} > 0" then "jump SELF loopnucleosome"
jump SELF loopnucleosome

    # Generate a random atom index
    variable random_index equal floor(random(1,80,27939))

    # Generate a random type (assuming types 1 to 3)
    variable random_type equal floor(random(1,4,489))

    # Change the atom's type to the random type
    set atom ${random_index} type ${random_type}
    set atom 70 type ${random_type}
    set atom 70 type 2
Setting atom values ...
  1 settings made for type

    # Run for 10,000 steps
    run ${steps_per_iteration}
    run 10000
Generated 0 of 3 mixed pair_coeff terms from geometric mixing rule
Per MPI rank memory allocation (min/avg/max) = 9.913 | 10.53 | 12.5 Mbytes
---
keywords: ['Step', 'Temp', 'c_R2[0]', 'f_4[1]', 'f_4[2]', 'f_4[3]', 'f_4[4]', ]
data:
  - [2110000, 0.948784053555323, 2.14843945871999, 110, 115, 84, 94, ]
  - [2120000, 1.01389815663888, 2.21409821359308, 110, 115, 85, 95, ]
...
Loop time of 1.72784 on 10 procs for 10000 steps with 80 atoms

Performance: 500045.519 tau/day, 5787.564 timesteps/s, 463.005 katom-step/s
100.0% CPU use with 10 MPI tasks x 1 OpenMP threads

MPI task timing breakdown:
Section |  min time  |  avg time  |  max time  |%varavg| %total
---------------------------------------------------------------
Pair    | 0.0004616  | 0.053991   | 0.53487    |  69.0 |  3.12
Bond    | 0.0006551  | 0.0073258  | 0.06629    |  23.0 |  0.42
Neigh   | 0.0009516  | 0.0012135  | 0.0013088  |   0.4 |  0.07
Comm    | 0.002092   | 0.065375   | 0.61773    |  72.0 |  3.78
Output  | 0.0008088  | 0.00084591 | 0.0008901  |   0.0 |  0.05
Modify  | 1.0909     | 1.5821     | 1.7058     |  19.5 | 91.56
Other   |            | 0.01701    |            |       |  0.98

Nlocal:              8 ave          80 max           0 min
Histogram: 9 0 0 0 0 0 0 0 0 1
Nghost:            7.1 ave          71 max           0 min
Histogram: 9 0 0 0 0 0 0 0 0 1
Neighs:          300.3 ave        3003 max           0 min
Histogram: 9 0 0 0 0 0 0 0 0 1
FullNghs:            0 ave           0 max           0 min
Histogram: 10 0 0 0 0 0 0 0 0 0

Total # of neighbors = 3003
Ave neighs/atom = 37.5375
Ave special neighs/atom = 5.85
Neighbor list builds = 17
Dangerous builds = 0

    # Decrease the iterations counter using a separate variable for the decrement
    variable new_iterations equal ${iterations}-1
    variable new_iterations equal 89-1
    variable iterations equal ${new_iterations}
    variable iterations equal 88

    # If iterations counter is not zero, continue the loop
    if "${iterations} > 0" then "jump SELF loopnucleosome"
jump SELF loopnucleosome

    # Generate a random atom index
    variable random_index equal floor(random(1,80,27939))

    # Generate a random type (assuming types 1 to 3)
    variable random_type equal floor(random(1,4,489))

    # Change the atom's type to the random type
    set atom ${random_index} type ${random_type}
    set atom 21 type ${random_type}
    set atom 21 type 1
Setting atom values ...
  1 settings made for type

    # Run for 10,000 steps
    run ${steps_per_iteration}
    run 10000
Generated 0 of 3 mixed pair_coeff terms from geometric mixing rule
Per MPI rank memory allocation (min/avg/max) = 9.913 | 10.53 | 12.5 Mbytes
---
keywords: ['Step', 'Temp', 'c_R2[0]', 'f_4[1]', 'f_4[2]', 'f_4[3]', 'f_4[4]', ]
data:
  - [2120000, 1.01389815663888, 2.21409821359308, 110, 115, 85, 95, ]
  - [2130000, 1.02256904545673, 2.23412249796636, 110, 118, 86, 96, ]
...
Loop time of 2.12113 on 10 procs for 10000 steps with 80 atoms

Performance: 407329.748 tau/day, 4714.465 timesteps/s, 377.157 katom-step/s
100.0% CPU use with 10 MPI tasks x 1 OpenMP threads

MPI task timing breakdown:
Section |  min time  |  avg time  |  max time  |%varavg| %total
---------------------------------------------------------------
Pair    | 0.0004355  | 0.065376   | 0.6486     |  76.0 |  3.08
Bond    | 0.0006383  | 0.0085518  | 0.078235   |  25.1 |  0.40
Neigh   | 0.0016006  | 0.0019277  | 0.0020658  |   0.4 |  0.09
Comm    | 0.0020793  | 0.078018   | 0.74292    |  79.4 |  3.68
Output  | 0.0009484  | 0.00098798 | 0.0010296  |   0.0 |  0.05
Modify  | 1.3563     | 1.9477     | 2.0965     |  21.2 | 91.83
Other   |            | 0.01853    |            |       |  0.87

Nlocal:              8 ave          80 max           0 min
Histogram: 9 0 0 0 0 0 0 0 0 1
Nghost:            6.2 ave          62 max           0 min
Histogram: 9 0 0 0 0 0 0 0 0 1
Neighs:          300.3 ave        3003 max           0 min
Histogram: 9 0 0 0 0 0 0 0 0 1
FullNghs:            0 ave           0 max           0 min
Histogram: 10 0 0 0 0 0 0 0 0 0

Total # of neighbors = 3003
Ave neighs/atom = 37.5375
Ave special neighs/atom = 5.85
Neighbor list builds = 23
Dangerous builds = 0

    # Decrease the iterations counter using a separate variable for the decrement
    variable new_iterations equal ${iterations}-1
    variable new_iterations equal 88-1
    variable iterations equal ${new_iterations}
    variable iterations equal 87

    # If iterations counter is not zero, continue the loop
    if "${iterations} > 0" then "jump SELF loopnucleosome"
jump SELF loopnucleosome

    # Generate a random atom index
    variable random_index equal floor(random(1,80,27939))

    # Generate a random type (assuming types 1 to 3)
    variable random_type equal floor(random(1,4,489))

    # Change the atom's type to the random type
    set atom ${random_index} type ${random_type}
    set atom 39 type ${random_type}
    set atom 39 type 2
Setting atom values ...
  1 settings made for type

    # Run for 10,000 steps
    run ${steps_per_iteration}
    run 10000
Generated 0 of 3 mixed pair_coeff terms from geometric mixing rule
Per MPI rank memory allocation (min/avg/max) = 9.913 | 10.53 | 12.5 Mbytes
---
keywords: ['Step', 'Temp', 'c_R2[0]', 'f_4[1]', 'f_4[2]', 'f_4[3]', 'f_4[4]', ]
data:
  - [2130000, 1.02256904545673, 2.23412249796636, 110, 118, 86, 96, ]
  - [2140000, 0.916376589233287, 2.18111466244228, 111, 119, 89, 96, ]
...
Loop time of 1.91025 on 10 procs for 10000 steps with 80 atoms

Performance: 452295.811 tau/day, 5234.905 timesteps/s, 418.792 katom-step/s
100.0% CPU use with 10 MPI tasks x 1 OpenMP threads

MPI task timing breakdown:
Section |  min time  |  avg time  |  max time  |%varavg| %total
---------------------------------------------------------------
Pair    | 0.0003929  | 0.05969    | 0.59162    |  72.6 |  3.12
Bond    | 0.0005535  | 0.0079374  | 0.072172   |  24.0 |  0.42
Neigh   | 0.0012539  | 0.0015905  | 0.0017064  |   0.4 |  0.08
Comm    | 0.0021876  | 0.071887   | 0.68098    |  75.7 |  3.76
Output  | 0.000853   | 0.00089114 | 0.0009356  |   0.0 |  0.05
Modify  | 1.2081     | 1.7502     | 1.8872     |  20.5 | 91.62
Other   |            | 0.01809    |            |       |  0.95

Nlocal:              8 ave          80 max           0 min
Histogram: 9 0 0 0 0 0 0 0 0 1
Nghost:            7.1 ave          71 max           0 min
Histogram: 9 0 0 0 0 0 0 0 0 1
Neighs:          300.3 ave        3003 max           0 min
Histogram: 9 0 0 0 0 0 0 0 0 1
FullNghs:            0 ave           0 max           0 min
Histogram: 10 0 0 0 0 0 0 0 0 0

Total # of neighbors = 3003
Ave neighs/atom = 37.5375
Ave special neighs/atom = 5.85
Neighbor list builds = 22
Dangerous builds = 0

    # Decrease the iterations counter using a separate variable for the decrement
    variable new_iterations equal ${iterations}-1
    variable new_iterations equal 87-1
    variable iterations equal ${new_iterations}
    variable iterations equal 86

    # If iterations counter is not zero, continue the loop
    if "${iterations} > 0" then "jump SELF loopnucleosome"
jump SELF loopnucleosome

    # Generate a random atom index
    variable random_index equal floor(random(1,80,27939))

    # Generate a random type (assuming types 1 to 3)
    variable random_type equal floor(random(1,4,489))

    # Change the atom's type to the random type
    set atom ${random_index} type ${random_type}
    set atom 49 type ${random_type}
    set atom 49 type 1
Setting atom values ...
  1 settings made for type

    # Run for 10,000 steps
    run ${steps_per_iteration}
    run 10000
Generated 0 of 3 mixed pair_coeff terms from geometric mixing rule
Per MPI rank memory allocation (min/avg/max) = 9.913 | 10.53 | 12.5 Mbytes
---
keywords: ['Step', 'Temp', 'c_R2[0]', 'f_4[1]', 'f_4[2]', 'f_4[3]', 'f_4[4]', ]
data:
  - [2140000, 0.916376589233287, 2.18111466244228, 111, 119, 89, 96, ]
  - [2150000, 0.930809772621934, 2.23956828237584, 113, 120, 89, 96, ]
...
Loop time of 1.97845 on 10 procs for 10000 steps with 80 atoms

Performance: 436705.623 tau/day, 5054.463 timesteps/s, 404.357 katom-step/s
100.0% CPU use with 10 MPI tasks x 1 OpenMP threads

MPI task timing breakdown:
Section |  min time  |  avg time  |  max time  |%varavg| %total
---------------------------------------------------------------
Pair    | 0.0004692  | 0.062624   | 0.62075    |  74.3 |  3.17
Bond    | 0.0006609  | 0.0082728  | 0.075204   |  24.5 |  0.42
Neigh   | 0.0011532  | 0.0014659  | 0.0016205  |   0.4 |  0.07
Comm    | 0.0023544  | 0.075025   | 0.71279    |  77.6 |  3.79
Output  | 0.0008968  | 0.00093472 | 0.0009789  |   0.0 |  0.05
Modify  | 1.2446     | 1.8119     | 1.9549     |  21.1 | 91.58
Other   |            | 0.01822    |            |       |  0.92

Nlocal:              8 ave          80 max           0 min
Histogram: 9 0 0 0 0 0 0 0 0 1
Nghost:            6.5 ave          65 max           0 min
Histogram: 9 0 0 0 0 0 0 0 0 1
Neighs:          300.3 ave        3003 max           0 min
Histogram: 9 0 0 0 0 0 0 0 0 1
FullNghs:            0 ave           0 max           0 min
Histogram: 10 0 0 0 0 0 0 0 0 0

Total # of neighbors = 3003
Ave neighs/atom = 37.5375
Ave special neighs/atom = 5.85
Neighbor list builds = 18
Dangerous builds = 0

    # Decrease the iterations counter using a separate variable for the decrement
    variable new_iterations equal ${iterations}-1
    variable new_iterations equal 86-1
    variable iterations equal ${new_iterations}
    variable iterations equal 85

    # If iterations counter is not zero, continue the loop
    if "${iterations} > 0" then "jump SELF loopnucleosome"
jump SELF loopnucleosome

    # Generate a random atom index
    variable random_index equal floor(random(1,80,27939))

    # Generate a random type (assuming types 1 to 3)
    variable random_type equal floor(random(1,4,489))

    # Change the atom's type to the random type
    set atom ${random_index} type ${random_type}
    set atom 30 type ${random_type}
    set atom 30 type 1
Setting atom values ...
  1 settings made for type

    # Run for 10,000 steps
    run ${steps_per_iteration}
    run 10000
Generated 0 of 3 mixed pair_coeff terms from geometric mixing rule
Per MPI rank memory allocation (min/avg/max) = 9.913 | 10.53 | 12.5 Mbytes
---
keywords: ['Step', 'Temp', 'c_R2[0]', 'f_4[1]', 'f_4[2]', 'f_4[3]', 'f_4[4]', ]
data:
  - [2150000, 0.930809772621934, 2.23956828237584, 113, 120, 89, 96, ]
  - [2160000, 1.056283506365, 2.2271066607552, 113, 121, 90, 98, ]
...
Loop time of 1.86506 on 10 procs for 10000 steps with 80 atoms

Performance: 463254.850 tau/day, 5361.746 timesteps/s, 428.940 katom-step/s
100.0% CPU use with 10 MPI tasks x 1 OpenMP threads

MPI task timing breakdown:
Section |  min time  |  avg time  |  max time  |%varavg| %total
---------------------------------------------------------------
Pair    | 0.0004912  | 0.058614   | 0.5811     |  71.9 |  3.14
Bond    | 0.0006876  | 0.0078288  | 0.071085   |  23.8 |  0.42
Neigh   | 0.001095   | 0.0014161  | 0.0015447  |   0.4 |  0.08
Comm    | 0.0021465  | 0.070704   | 0.66988    |  75.1 |  3.79
Output  | 0.0008618  | 0.00089674 | 0.0009364  |   0.0 |  0.05
Modify  | 1.1754     | 1.7082     | 1.8421     |  20.4 | 91.59
Other   |            | 0.01743    |            |       |  0.93

Nlocal:              8 ave          80 max           0 min
Histogram: 9 0 0 0 0 0 0 0 0 1
Nghost:            6.8 ave          68 max           0 min
Histogram: 9 0 0 0 0 0 0 0 0 1
Neighs:          300.3 ave        3003 max           0 min
Histogram: 9 0 0 0 0 0 0 0 0 1
FullNghs:            0 ave           0 max           0 min
Histogram: 10 0 0 0 0 0 0 0 0 0

Total # of neighbors = 3003
Ave neighs/atom = 37.5375
Ave special neighs/atom = 5.85
Neighbor list builds = 20
Dangerous builds = 0

    # Decrease the iterations counter using a separate variable for the decrement
    variable new_iterations equal ${iterations}-1
    variable new_iterations equal 85-1
    variable iterations equal ${new_iterations}
    variable iterations equal 84

    # If iterations counter is not zero, continue the loop
    if "${iterations} > 0" then "jump SELF loopnucleosome"
jump SELF loopnucleosome

    # Generate a random atom index
    variable random_index equal floor(random(1,80,27939))

    # Generate a random type (assuming types 1 to 3)
    variable random_type equal floor(random(1,4,489))

    # Change the atom's type to the random type
    set atom ${random_index} type ${random_type}
    set atom 46 type ${random_type}
    set atom 46 type 2
Setting atom values ...
  1 settings made for type

    # Run for 10,000 steps
    run ${steps_per_iteration}
    run 10000
Generated 0 of 3 mixed pair_coeff terms from geometric mixing rule
Per MPI rank memory allocation (min/avg/max) = 9.913 | 10.53 | 12.5 Mbytes
---
keywords: ['Step', 'Temp', 'c_R2[0]', 'f_4[1]', 'f_4[2]', 'f_4[3]', 'f_4[4]', ]
data:
  - [2160000, 1.056283506365, 2.2271066607552, 113, 121, 90, 98, ]
  - [2170000, 0.957383569756853, 2.19831975365703, 115, 123, 91, 98, ]
...
Loop time of 2.02332 on 10 procs for 10000 steps with 80 atoms

Performance: 427021.662 tau/day, 4942.380 timesteps/s, 395.390 katom-step/s
100.0% CPU use with 10 MPI tasks x 1 OpenMP threads

MPI task timing breakdown:
Section |  min time  |  avg time  |  max time  |%varavg| %total
---------------------------------------------------------------
Pair    | 0.0005386  | 0.063957   | 0.6343     |  75.2 |  3.16
Bond    | 0.0007207  | 0.0083408  | 0.076171   |  24.8 |  0.41
Neigh   | 0.0013428  | 0.0016603  | 0.0017848  |   0.4 |  0.08
Comm    | 0.0024404  | 0.076788   | 0.72868    |  78.4 |  3.80
Output  | 0.0008789  | 0.00091658 | 0.0009757  |   0.0 |  0.05
Modify  | 1.275      | 1.8541     | 2.0001     |  21.3 | 91.64
Other   |            | 0.01752    |            |       |  0.87

Nlocal:              8 ave          80 max           0 min
Histogram: 9 0 0 0 0 0 0 0 0 1
Nghost:            5.8 ave          58 max           0 min
Histogram: 9 0 0 0 0 0 0 0 0 1
Neighs:          300.3 ave        3003 max           0 min
Histogram: 9 0 0 0 0 0 0 0 0 1
FullNghs:            0 ave           0 max           0 min
Histogram: 10 0 0 0 0 0 0 0 0 0

Total # of neighbors = 3003
Ave neighs/atom = 37.5375
Ave special neighs/atom = 5.85
Neighbor list builds = 21
Dangerous builds = 0

    # Decrease the iterations counter using a separate variable for the decrement
    variable new_iterations equal ${iterations}-1
    variable new_iterations equal 84-1
    variable iterations equal ${new_iterations}
    variable iterations equal 83

    # If iterations counter is not zero, continue the loop
    if "${iterations} > 0" then "jump SELF loopnucleosome"
jump SELF loopnucleosome

    # Generate a random atom index
    variable random_index equal floor(random(1,80,27939))

    # Generate a random type (assuming types 1 to 3)
    variable random_type equal floor(random(1,4,489))

    # Change the atom's type to the random type
    set atom ${random_index} type ${random_type}
    set atom 24 type ${random_type}
    set atom 24 type 1
Setting atom values ...
  1 settings made for type

    # Run for 10,000 steps
    run ${steps_per_iteration}
    run 10000
Generated 0 of 3 mixed pair_coeff terms from geometric mixing rule
Per MPI rank memory allocation (min/avg/max) = 9.913 | 10.53 | 12.5 Mbytes
---
keywords: ['Step', 'Temp', 'c_R2[0]', 'f_4[1]', 'f_4[2]', 'f_4[3]', 'f_4[4]', ]
data:
  - [2170000, 0.957383569756853, 2.19831975365703, 115, 123, 91, 98, ]
  - [2180000, 0.977522900095818, 2.20575186499858, 115, 124, 94, 98, ]
...
Loop time of 2.0585 on 10 procs for 10000 steps with 80 atoms

Performance: 419722.734 tau/day, 4857.902 timesteps/s, 388.632 katom-step/s
100.0% CPU use with 10 MPI tasks x 1 OpenMP threads

MPI task timing breakdown:
Section |  min time  |  avg time  |  max time  |%varavg| %total
---------------------------------------------------------------
Pair    | 0.0004562  | 0.065493   | 0.6496     |  76.1 |  3.18
Bond    | 0.0006273  | 0.0085847  | 0.078582   |  25.2 |  0.42
Neigh   | 0.0014136  | 0.0016534  | 0.0017874  |   0.3 |  0.08
Comm    | 0.0020362  | 0.078106   | 0.74429    |  79.5 |  3.79
Output  | 0.0009377  | 0.00097744 | 0.0010261  |   0.0 |  0.05
Modify  | 1.2933     | 1.8861     | 2.0358     |  21.6 | 91.63
Other   |            | 0.01758    |            |       |  0.85

Nlocal:              8 ave          80 max           0 min
Histogram: 9 0 0 0 0 0 0 0 0 1
Nghost:            6.5 ave          65 max           0 min
Histogram: 9 0 0 0 0 0 0 0 0 1
Neighs:          300.3 ave        3003 max           0 min
Histogram: 9 0 0 0 0 0 0 0 0 1
FullNghs:            0 ave           0 max           0 min
Histogram: 10 0 0 0 0 0 0 0 0 0

Total # of neighbors = 3003
Ave neighs/atom = 37.5375
Ave special neighs/atom = 5.85
Neighbor list builds = 20
Dangerous builds = 0

    # Decrease the iterations counter using a separate variable for the decrement
    variable new_iterations equal ${iterations}-1
    variable new_iterations equal 83-1
    variable iterations equal ${new_iterations}
    variable iterations equal 82

    # If iterations counter is not zero, continue the loop
    if "${iterations} > 0" then "jump SELF loopnucleosome"
jump SELF loopnucleosome

    # Generate a random atom index
    variable random_index equal floor(random(1,80,27939))

    # Generate a random type (assuming types 1 to 3)
    variable random_type equal floor(random(1,4,489))

    # Change the atom's type to the random type
    set atom ${random_index} type ${random_type}
    set atom 61 type ${random_type}
    set atom 61 type 2
Setting atom values ...
  1 settings made for type

    # Run for 10,000 steps
    run ${steps_per_iteration}
    run 10000
Generated 0 of 3 mixed pair_coeff terms from geometric mixing rule
Per MPI rank memory allocation (min/avg/max) = 9.913 | 10.53 | 12.5 Mbytes
---
keywords: ['Step', 'Temp', 'c_R2[0]', 'f_4[1]', 'f_4[2]', 'f_4[3]', 'f_4[4]', ]
data:
  - [2180000, 0.977522900095818, 2.20575186499858, 115, 124, 94, 98, ]
  - [2190000, 1.06998147213526, 2.18641895907141, 115, 125, 94, 99, ]
...
Loop time of 2.22223 on 10 procs for 10000 steps with 80 atoms

Performance: 388798.993 tau/day, 4499.988 timesteps/s, 359.999 katom-step/s
100.0% CPU use with 10 MPI tasks x 1 OpenMP threads

MPI task timing breakdown:
Section |  min time  |  avg time  |  max time  |%varavg| %total
---------------------------------------------------------------
Pair    | 0.0004795  | 0.06964    | 0.69126    |  78.5 |  3.13
Bond    | 0.0006832  | 0.0090159  | 0.082838   |  25.9 |  0.41
Neigh   | 0.0012193  | 0.0015105  | 0.0016528  |   0.4 |  0.07
Comm    | 0.001938   | 0.082732   | 0.79078    |  82.1 |  3.72
Output  | 0.0010599  | 0.001096   | 0.0011416  |   0.1 |  0.05
Modify  | 1.411      | 2.0407     | 2.1989     |  22.0 | 91.83
Other   |            | 0.01752    |            |       |  0.79

Nlocal:              8 ave          80 max           0 min
Histogram: 9 0 0 0 0 0 0 0 0 1
Nghost:            7.1 ave          71 max           0 min
Histogram: 9 0 0 0 0 0 0 0 0 1
Neighs:          300.3 ave        3003 max           0 min
Histogram: 9 0 0 0 0 0 0 0 0 1
FullNghs:            0 ave           0 max           0 min
Histogram: 10 0 0 0 0 0 0 0 0 0

Total # of neighbors = 3003
Ave neighs/atom = 37.5375
Ave special neighs/atom = 5.85
Neighbor list builds = 17
Dangerous builds = 0

    # Decrease the iterations counter using a separate variable for the decrement
    variable new_iterations equal ${iterations}-1
    variable new_iterations equal 82-1
    variable iterations equal ${new_iterations}
    variable iterations equal 81

    # If iterations counter is not zero, continue the loop
    if "${iterations} > 0" then "jump SELF loopnucleosome"
jump SELF loopnucleosome

    # Generate a random atom index
    variable random_index equal floor(random(1,80,27939))

    # Generate a random type (assuming types 1 to 3)
    variable random_type equal floor(random(1,4,489))

    # Change the atom's type to the random type
    set atom ${random_index} type ${random_type}
    set atom 43 type ${random_type}
    set atom 43 type 1
Setting atom values ...
  1 settings made for type

    # Run for 10,000 steps
    run ${steps_per_iteration}
    run 10000
Generated 0 of 3 mixed pair_coeff terms from geometric mixing rule
Per MPI rank memory allocation (min/avg/max) = 9.913 | 10.53 | 12.5 Mbytes
---
keywords: ['Step', 'Temp', 'c_R2[0]', 'f_4[1]', 'f_4[2]', 'f_4[3]', 'f_4[4]', ]
data:
  - [2190000, 1.06998147213526, 2.18641895907141, 115, 125, 94, 99, ]
  - [2200000, 0.926072286858626, 2.15568605559805, 115, 126, 95, 101, ]
...
Loop time of 2.1166 on 10 procs for 10000 steps with 80 atoms

Performance: 408200.892 tau/day, 4724.547 timesteps/s, 377.964 katom-step/s
100.0% CPU use with 10 MPI tasks x 1 OpenMP threads

MPI task timing breakdown:
Section |  min time  |  avg time  |  max time  |%varavg| %total
---------------------------------------------------------------
Pair    | 0.000452   | 0.064886   | 0.64348    |  75.7 |  3.07
Bond    | 0.0006708  | 0.0085861  | 0.078387   |  25.1 |  0.41
Neigh   | 0.0012964  | 0.0016279  | 0.0017698  |   0.4 |  0.08
Comm    | 0.0019315  | 0.077865   | 0.74022    |  79.1 |  3.68
Output  | 0.0009758  | 0.0010195  | 0.0010712  |   0.1 |  0.05
Modify  | 1.355      | 1.9441     | 2.0927     |  21.1 | 91.85
Other   |            | 0.01855    |            |       |  0.88

Nlocal:              8 ave          80 max           0 min
Histogram: 9 0 0 0 0 0 0 0 0 1
Nghost:            7.8 ave          78 max           0 min
Histogram: 9 0 0 0 0 0 0 0 0 1
Neighs:          300.3 ave        3003 max           0 min
Histogram: 9 0 0 0 0 0 0 0 0 1
FullNghs:            0 ave           0 max           0 min
Histogram: 10 0 0 0 0 0 0 0 0 0

Total # of neighbors = 3003
Ave neighs/atom = 37.5375
Ave special neighs/atom = 5.85
Neighbor list builds = 21
Dangerous builds = 0

    # Decrease the iterations counter using a separate variable for the decrement
    variable new_iterations equal ${iterations}-1
    variable new_iterations equal 81-1
    variable iterations equal ${new_iterations}
    variable iterations equal 80

    # If iterations counter is not zero, continue the loop
    if "${iterations} > 0" then "jump SELF loopnucleosome"
jump SELF loopnucleosome

    # Generate a random atom index
    variable random_index equal floor(random(1,80,27939))

    # Generate a random type (assuming types 1 to 3)
    variable random_type equal floor(random(1,4,489))

    # Change the atom's type to the random type
    set atom ${random_index} type ${random_type}
    set atom 52 type ${random_type}
    set atom 52 type 3
Setting atom values ...
  1 settings made for type

    # Run for 10,000 steps
    run ${steps_per_iteration}
    run 10000
Generated 0 of 3 mixed pair_coeff terms from geometric mixing rule
Per MPI rank memory allocation (min/avg/max) = 9.913 | 10.53 | 12.5 Mbytes
---
keywords: ['Step', 'Temp', 'c_R2[0]', 'f_4[1]', 'f_4[2]', 'f_4[3]', 'f_4[4]', ]
data:
  - [2200000, 0.926072286858626, 2.15568605559805, 115, 126, 95, 101, ]
  - [2210000, 1.06087161178671, 2.13952048577818, 116, 127, 95, 102, ]
...
Loop time of 1.80505 on 10 procs for 10000 steps with 80 atoms

Performance: 478657.446 tau/day, 5540.017 timesteps/s, 443.201 katom-step/s
100.0% CPU use with 10 MPI tasks x 1 OpenMP threads

MPI task timing breakdown:
Section |  min time  |  avg time  |  max time  |%varavg| %total
---------------------------------------------------------------
Pair    | 0.0004797  | 0.056207   | 0.55711    |  70.4 |  3.11
Bond    | 0.0006486  | 0.0075131  | 0.068208   |  23.3 |  0.42
Neigh   | 0.0010333  | 0.0012851  | 0.0013924  |   0.4 |  0.07
Comm    | 0.0021266  | 0.067898   | 0.6425     |  73.5 |  3.76
Output  | 0.0007761  | 0.0008079  | 0.0008493  |   0.0 |  0.04
Modify  | 1.145      | 1.655      | 1.7835     |  19.8 | 91.69
Other   |            | 0.01631    |            |       |  0.90

Nlocal:              8 ave          80 max           0 min
Histogram: 9 0 0 0 0 0 0 0 0 1
Nghost:            7.5 ave          75 max           0 min
Histogram: 9 0 0 0 0 0 0 0 0 1
Neighs:          300.3 ave        3003 max           0 min
Histogram: 9 0 0 0 0 0 0 0 0 1
FullNghs:            0 ave           0 max           0 min
Histogram: 10 0 0 0 0 0 0 0 0 0

Total # of neighbors = 3003
Ave neighs/atom = 37.5375
Ave special neighs/atom = 5.85
Neighbor list builds = 18
Dangerous builds = 0

    # Decrease the iterations counter using a separate variable for the decrement
    variable new_iterations equal ${iterations}-1
    variable new_iterations equal 80-1
    variable iterations equal ${new_iterations}
    variable iterations equal 79

    # If iterations counter is not zero, continue the loop
    if "${iterations} > 0" then "jump SELF loopnucleosome"
jump SELF loopnucleosome

    # Generate a random atom index
    variable random_index equal floor(random(1,80,27939))

    # Generate a random type (assuming types 1 to 3)
    variable random_type equal floor(random(1,4,489))

    # Change the atom's type to the random type
    set atom ${random_index} type ${random_type}
    set atom 5 type ${random_type}
    set atom 5 type 3
Setting atom values ...
  1 settings made for type

    # Run for 10,000 steps
    run ${steps_per_iteration}
    run 10000
Generated 0 of 3 mixed pair_coeff terms from geometric mixing rule
Per MPI rank memory allocation (min/avg/max) = 9.913 | 10.53 | 12.5 Mbytes
---
keywords: ['Step', 'Temp', 'c_R2[0]', 'f_4[1]', 'f_4[2]', 'f_4[3]', 'f_4[4]', ]
data:
  - [2210000, 1.06087161178671, 2.13952048577818, 116, 127, 95, 102, ]
  - [2220000, 0.960449217489417, 2.12372312696703, 116, 128, 95, 102, ]
...
Loop time of 2.01073 on 10 procs for 10000 steps with 80 atoms

Performance: 429693.660 tau/day, 4973.306 timesteps/s, 397.865 katom-step/s
100.0% CPU use with 10 MPI tasks x 1 OpenMP threads

MPI task timing breakdown:
Section |  min time  |  avg time  |  max time  |%varavg| %total
---------------------------------------------------------------
Pair    | 0.0004129  | 0.061451   | 0.60934    |  73.7 |  3.06
Bond    | 0.0006011  | 0.0080977  | 0.073678   |  24.3 |  0.40
Neigh   | 0.0009387  | 0.0012521  | 0.0013964  |   0.5 |  0.06
Comm    | 0.0021372  | 0.073854   | 0.7009     |  76.9 |  3.67
Output  | 0.0008667  | 0.00090585 | 0.0009492  |   0.0 |  0.05
Modify  | 1.2888     | 1.847      | 1.9876     |  20.5 | 91.86
Other   |            | 0.0182     |            |       |  0.91

Nlocal:              8 ave          80 max           0 min
Histogram: 9 0 0 0 0 0 0 0 0 1
Nghost:            7.5 ave          75 max           0 min
Histogram: 9 0 0 0 0 0 0 0 0 1
Neighs:          300.3 ave        3003 max           0 min
Histogram: 9 0 0 0 0 0 0 0 0 1
FullNghs:            0 ave           0 max           0 min
Histogram: 10 0 0 0 0 0 0 0 0 0

Total # of neighbors = 3003
Ave neighs/atom = 37.5375
Ave special neighs/atom = 5.85
Neighbor list builds = 16
Dangerous builds = 0

    # Decrease the iterations counter using a separate variable for the decrement
    variable new_iterations equal ${iterations}-1
    variable new_iterations equal 79-1
    variable iterations equal ${new_iterations}
    variable iterations equal 78

    # If iterations counter is not zero, continue the loop
    if "${iterations} > 0" then "jump SELF loopnucleosome"
jump SELF loopnucleosome

    # Generate a random atom index
    variable random_index equal floor(random(1,80,27939))

    # Generate a random type (assuming types 1 to 3)
    variable random_type equal floor(random(1,4,489))

[...]

    # Generate a random type (assuming types 1 to 3)
    variable random_type equal floor(random(1,4,489))

    # Change the atom's type to the random type
    set atom ${random_index} type ${random_type}
    set atom 73 type ${random_type}
    set atom 73 type 1
Setting atom values ...
  1 settings made for type

    # Run for 10,000 steps
    run ${steps_per_iteration}
    run 10000
Generated 0 of 3 mixed pair_coeff terms from geometric mixing rule
Per MPI rank memory allocation (min/avg/max) = 9.913 | 10.79 | 12.5 Mbytes
---
keywords: ['Step', 'Temp', 'c_R2[0]', 'f_4[1]', 'f_4[2]', 'f_4[3]', 'f_4[4]', ]
data:
  - [27540000, 0.97127150763035, 1.59142680941776, 1233, 1589, 1169, 1324, ]
  - [27550000, 1.02404652398735, 1.5614762515594, 1233, 1589, 1169, 1326, ]
...
Loop time of 1.71009 on 10 procs for 10000 steps with 80 atoms

Performance: 505237.276 tau/day, 5847.654 timesteps/s, 467.812 katom-step/s
100.0% CPU use with 10 MPI tasks x 1 OpenMP threads

MPI task timing breakdown:
Section |  min time  |  avg time  |  max time  |%varavg| %total
---------------------------------------------------------------
Pair    | 0.0005397  | 0.059314   | 0.58747    |  72.3 |  3.47
Bond    | 0.0007906  | 0.0080709  | 0.072412   |  23.9 |  0.47
Neigh   | 0.001297   | 0.0017144  | 0.0018615  |   0.5 |  0.10
Comm    | 0.0038615  | 0.072923   | 0.67728    |  74.6 |  4.26
Output  | 0.0009177  | 0.00096989 | 0.0010194  |   0.0 |  0.06
Modify  | 1.0088     | 1.5499     | 1.686      |  21.6 | 90.63
Other   |            | 0.01721    |            |       |  1.01

Nlocal:              8 ave          80 max           0 min
Histogram: 9 0 0 0 0 0 0 0 0 1
Nghost:              8 ave          80 max           0 min
Histogram: 9 0 0 0 0 0 0 0 0 1
Neighs:          300.3 ave        3003 max           0 min
Histogram: 9 0 0 0 0 0 0 0 0 1
FullNghs:            0 ave           0 max           0 min
Histogram: 10 0 0 0 0 0 0 0 0 0

Total # of neighbors = 3003
Ave neighs/atom = 37.5375
Ave special neighs/atom = 5.85
Neighbor list builds = 20
Dangerous builds = 0

    # Decrease the iterations counter using a separate variable for the decrement
    variable new_iterations equal ${iterations}-1
    variable new_iterations equal 146-1
    variable iterations equal ${new_iterations}
    variable iterations equal 145

    # If iterations counter is not zero, continue the loop
    if "${iterations} > 0" then "jump SELF loopnucleosome"
jump SELF loopnucleosome

    # Generate a random atom index
    variable random_index equal floor(random(1,80,27939))

    # Generate a random type (assuming types 1 to 3)
    variable random_type equal floor(random(1,4,489))

    # Change the atom's type to the random type
    set atom ${random_index} type ${random_type}
    set atom 21 type ${random_type}
    set atom 21 type 1
Setting atom values ...
  1 settings made for type

    # Run for 10,000 steps
    run ${steps_per_iteration}
    run 10000
Generated 0 of 3 mixed pair_coeff terms from geometric mixing rule
Per MPI rank memory allocation (min/avg/max) = 9.913 | 10.79 | 12.5 Mbytes
---
keywords: ['Step', 'Temp', 'c_R2[0]', 'f_4[1]', 'f_4[2]', 'f_4[3]', 'f_4[4]', ]
data:
  - [27550000, 1.02404652398735, 1.5614762515594, 1233, 1589, 1169, 1326, ]
  - [27560000, 1.03651084610902, 1.52172036606271, 1233, 1590, 1169, 1327, ]
...
Loop time of 1.74622 on 10 procs for 10000 steps with 80 atoms

Performance: 494781.714 tau/day, 5726.640 timesteps/s, 458.131 katom-step/s
100.0% CPU use with 10 MPI tasks x 1 OpenMP threads

MPI task timing breakdown:
Section |  min time  |  avg time  |  max time  |%varavg| %total
---------------------------------------------------------------
Pair    | 0.0005285  | 0.060985   | 0.60423    |  73.3 |  3.49
Bond    | 0.0007775  | 0.0081756  | 0.073944   |  24.2 |  0.47
Neigh   | 0.0011421  | 0.0015466  | 0.0016637  |   0.5 |  0.09
Comm    | 0.0035129  | 0.074552   | 0.69576    |  75.9 |  4.27
Output  | 0.0009124  | 0.00096444 | 0.0010212  |   0.0 |  0.06
Modify  | 1.0267     | 1.5829     | 1.7225     |  22.0 | 90.65
Other   |            | 0.01709    |            |       |  0.98

Nlocal:              8 ave          80 max           0 min
Histogram: 9 0 0 0 0 0 0 0 0 1
Nghost:            7.7 ave          77 max           0 min
Histogram: 9 0 0 0 0 0 0 0 0 1
Neighs:          300.3 ave        3003 max           0 min
Histogram: 9 0 0 0 0 0 0 0 0 1
FullNghs:            0 ave           0 max           0 min
Histogram: 10 0 0 0 0 0 0 0 0 0

Total # of neighbors = 3003
Ave neighs/atom = 37.5375
Ave special neighs/atom = 5.85
Neighbor list builds = 18
Dangerous builds = 0

    # Decrease the iterations counter using a separate variable for the decrement
    variable new_iterations equal ${iterations}-1
    variable new_iterations equal 145-1
    variable iterations equal ${new_iterations}
    variable iterations equal 144

    # If iterations counter is not zero, continue the loop
    if "${iterations} > 0" then "jump SELF loopnucleosome"
jump SELF loopnucleosome

    # Generate a random atom index
    variable random_index equal floor(random(1,80,27939))

    # Generate a random type (assuming types 1 to 3)
    variable random_type equal floor(random(1,4,489))

    # Change the atom's type to the random type
    set atom ${random_index} type ${random_type}
    set atom 21 type ${random_type}
    set atom 21 type 2
Setting atom values ...
  1 settings made for type

    # Run for 10,000 steps
    run ${steps_per_iteration}
    run 10000
Generated 0 of 3 mixed pair_coeff terms from geometric mixing rule
Per MPI rank memory allocation (min/avg/max) = 9.913 | 10.79 | 12.5 Mbytes
---
keywords: ['Step', 'Temp', 'c_R2[0]', 'f_4[1]', 'f_4[2]', 'f_4[3]', 'f_4[4]', ]
data:
  - [27560000, 1.03651084610902, 1.52172036606271, 1233, 1590, 1169, 1327, ]
  - [27570000, 0.919896262667035, 1.53723575012244, 1233, 1590, 1169, 1328, ]
...
Loop time of 1.64616 on 10 procs for 10000 steps with 80 atoms

Performance: 524859.372 tau/day, 6074.761 timesteps/s, 485.981 katom-step/s
100.0% CPU use with 10 MPI tasks x 1 OpenMP threads

MPI task timing breakdown:
Section |  min time  |  avg time  |  max time  |%varavg| %total
---------------------------------------------------------------
Pair    | 0.0005281  | 0.058101   | 0.5754     |  71.5 |  3.53
Bond    | 0.0007941  | 0.0078815  | 0.070992   |  23.7 |  0.48
Neigh   | 0.0011584  | 0.0016032  | 0.0017452  |   0.6 |  0.10
Comm    | 0.0037133  | 0.07141    | 0.66301    |  73.8 |  4.34
Output  | 0.0008655  | 0.00093748 | 0.0012294  |   0.0 |  0.06
Modify  | 0.9591     | 1.489      | 1.6229     |  21.6 | 90.45
Other   |            | 0.01727    |            |       |  1.05

Nlocal:              8 ave          80 max           0 min
Histogram: 9 0 0 0 0 0 0 0 0 1
Nghost:            7.9 ave          79 max           0 min
Histogram: 9 0 0 0 0 0 0 0 0 1
Neighs:          300.3 ave        3003 max           0 min
Histogram: 9 0 0 0 0 0 0 0 0 1
FullNghs:            0 ave           0 max           0 min
Histogram: 10 0 0 0 0 0 0 0 0 0

Total # of neighbors = 3003
Ave neighs/atom = 37.5375
Ave special neighs/atom = 5.85
Neighbor list builds = 20
Dangerous builds = 0

    # Decrease the iterations counter using a separate variable for the decrement
    variable new_iterations equal ${iterations}-1
    variable new_iterations equal 144-1
    variable iterations equal ${new_iterations}
    variable iterations equal 143

    # If iterations counter is not zero, continue the loop
    if "${iterations} > 0" then "jump SELF loopnucleosome"
jump SELF loopnucleosome

    # Generate a random atom index
    variable random_index equal floor(random(1,80,27939))

    # Generate a random type (assuming types 1 to 3)
    variable random_type equal floor(random(1,4,489))

    # Change the atom's type to the random type
    set atom ${random_index} type ${random_type}
    set atom 60 type ${random_type}
    set atom 60 type 2
Setting atom values ...
  1 settings made for type

    # Run for 10,000 steps
    run ${steps_per_iteration}
    run 10000
Generated 0 of 3 mixed pair_coeff terms from geometric mixing rule
Per MPI rank memory allocation (min/avg/max) = 9.913 | 10.79 | 12.5 Mbytes
---
keywords: ['Step', 'Temp', 'c_R2[0]', 'f_4[1]', 'f_4[2]', 'f_4[3]', 'f_4[4]', ]
data:
  - [27570000, 0.919896262667035, 1.53723575012244, 1233, 1590, 1169, 1328, ]
  - [27580000, 0.950349902826447, 1.50564172038762, 1233, 1590, 1169, 1328, ]
...
Loop time of 1.81073 on 10 procs for 10000 steps with 80 atoms

Performance: 477156.566 tau/day, 5522.645 timesteps/s, 441.812 katom-step/s
100.0% CPU use with 10 MPI tasks x 1 OpenMP threads

MPI task timing breakdown:
Section |  min time  |  avg time  |  max time  |%varavg| %total
---------------------------------------------------------------
Pair    | 0.0004922  | 0.063491   | 0.6295     |  74.9 |  3.51
Bond    | 0.0007671  | 0.0084587  | 0.076846   |  24.8 |  0.47
Neigh   | 0.0011277  | 0.0014761  | 0.0016055  |   0.5 |  0.08
Comm    | 0.0032853  | 0.077093   | 0.72296    |  77.6 |  4.26
Output  | 0.0009142  | 0.00096412 | 0.0010101  |   0.0 |  0.05
Modify  | 1.0634     | 1.6418     | 1.7867     |  22.5 | 90.67
Other   |            | 0.01747    |            |       |  0.96

Nlocal:              8 ave          80 max           0 min
Histogram: 9 0 0 0 0 0 0 0 0 1
Nghost:            7.4 ave          74 max           0 min
Histogram: 9 0 0 0 0 0 0 0 0 1
Neighs:          300.3 ave        3003 max           0 min
Histogram: 9 0 0 0 0 0 0 0 0 1
FullNghs:            0 ave           0 max           0 min
Histogram: 10 0 0 0 0 0 0 0 0 0

Total # of neighbors = 3003
Ave neighs/atom = 37.5375
Ave special neighs/atom = 5.85
Neighbor list builds = 16
Dangerous builds = 0

    # Decrease the iterations counter using a separate variable for the decrement
    variable new_iterations equal ${iterations}-1
    variable new_iterations equal 143-1
    variable iterations equal ${new_iterations}
    variable iterations equal 142

    # If iterations counter is not zero, continue the loop
    if "${iterations} > 0" then "jump SELF loopnucleosome"
jump SELF loopnucleosome

    # Generate a random atom index
    variable random_index equal floor(random(1,80,27939))

    # Generate a random type (assuming types 1 to 3)
    variable random_type equal floor(random(1,4,489))

    # Change the atom's type to the random type
    set atom ${random_index} type ${random_type}
    set atom 5 type ${random_type}
    set atom 5 type 1
Setting atom values ...
  1 settings made for type

    # Run for 10,000 steps
    run ${steps_per_iteration}
    run 10000
Generated 0 of 3 mixed pair_coeff terms from geometric mixing rule
Per MPI rank memory allocation (min/avg/max) = 9.913 | 10.79 | 12.5 Mbytes
---
keywords: ['Step', 'Temp', 'c_R2[0]', 'f_4[1]', 'f_4[2]', 'f_4[3]', 'f_4[4]', ]
data:
  - [27580000, 0.950349902826447, 1.50564172038762, 1233, 1590, 1169, 1328, ]
  - [27590000, 0.985947874415678, 1.56447866262157, 1233, 1590, 1169, 1329, ]
...
Loop time of 1.91115 on 10 procs for 10000 steps with 80 atoms

Performance: 452083.086 tau/day, 5232.443 timesteps/s, 418.595 katom-step/s
100.0% CPU use with 10 MPI tasks x 1 OpenMP threads

MPI task timing breakdown:
Section |  min time  |  avg time  |  max time  |%varavg| %total
---------------------------------------------------------------
Pair    | 0.0004758  | 0.066539   | 0.65999    |  76.7 |  3.48
Bond    | 0.0007243  | 0.0087611  | 0.080029   |  25.4 |  0.46
Neigh   | 0.0011744  | 0.001573   | 0.0017595  |   0.5 |  0.08
Comm    | 0.0031593  | 0.080335   | 0.75644    |  79.5 |  4.20
Output  | 0.0009134  | 0.00096519 | 0.0010324  |   0.0 |  0.05
Modify  | 1.1307     | 1.7355     | 1.8872     |  22.9 | 90.81
Other   |            | 0.01745    |            |       |  0.91

Nlocal:              8 ave          80 max           0 min
Histogram: 9 0 0 0 0 0 0 0 0 1
Nghost:            6.6 ave          66 max           0 min
Histogram: 9 0 0 0 0 0 0 0 0 1
Neighs:          300.3 ave        3003 max           0 min
Histogram: 9 0 0 0 0 0 0 0 0 1
FullNghs:            0 ave           0 max           0 min
Histogram: 10 0 0 0 0 0 0 0 0 0

Total # of neighbors = 3003
Ave neighs/atom = 37.5375
Ave special neighs/atom = 5.85
Neighbor list builds = 18
Dangerous builds = 0

    # Decrease the iterations counter using a separate variable for the decrement
    variable new_iterations equal ${iterations}-1
    variable new_iterations equal 142-1
    variable iterations equal ${new_iterations}
    variable iterations equal 141

    # If iterations counter is not zero, continue the loop
    if "${iterations} > 0" then "jump SELF loopnucleosome"
jump SELF loopnucleosome

    # Generate a random atom index
    variable random_index equal floor(random(1,80,27939))

    # Generate a random type (assuming types 1 to 3)
    variable random_type equal floor(random(1,4,489))

    # Change the atom's type to the random type
    set atom ${random_index} type ${random_type}
    set atom 28 type ${random_type}
    set atom 28 type 2
Setting atom values ...
  1 settings made for type

    # Run for 10,000 steps
    run ${steps_per_iteration}
    run 10000
Generated 0 of 3 mixed pair_coeff terms from geometric mixing rule
Per MPI rank memory allocation (min/avg/max) = 9.913 | 10.79 | 12.5 Mbytes
---
keywords: ['Step', 'Temp', 'c_R2[0]', 'f_4[1]', 'f_4[2]', 'f_4[3]', 'f_4[4]', ]
data:
  - [27590000, 0.985947874415678, 1.56447866262157, 1233, 1590, 1169, 1329, ]
  - [27600000, 0.94661127717036, 1.53265907542485, 1233, 1591, 1170, 1331, ]
...
Loop time of 1.67595 on 10 procs for 10000 steps with 80 atoms

Performance: 515529.927 tau/day, 5966.782 timesteps/s, 477.343 katom-step/s
100.0% CPU use with 10 MPI tasks x 1 OpenMP threads

MPI task timing breakdown:
Section |  min time  |  avg time  |  max time  |%varavg| %total
---------------------------------------------------------------
Pair    | 0.0005236  | 0.05891    | 0.58363    |  72.1 |  3.52
Bond    | 0.0007415  | 0.0079864  | 0.072159   |  23.9 |  0.48
Neigh   | 0.0013727  | 0.0016126  | 0.0017155  |   0.3 |  0.10
Comm    | 0.0038207  | 0.072152   | 0.67141    |  74.4 |  4.31
Output  | 0.0009272  | 0.00099727 | 0.0010603  |   0.0 |  0.06
Modify  | 0.98001    | 1.5169     | 1.652      |  21.7 | 90.51
Other   |            | 0.01736    |            |       |  1.04

Nlocal:              8 ave          80 max           0 min
Histogram: 9 0 0 0 0 0 0 0 0 1
Nghost:            4.2 ave          42 max           0 min
Histogram: 9 0 0 0 0 0 0 0 0 1
Neighs:          300.3 ave        3003 max           0 min
Histogram: 9 0 0 0 0 0 0 0 0 1
FullNghs:            0 ave           0 max           0 min
Histogram: 10 0 0 0 0 0 0 0 0 0

Total # of neighbors = 3003
Ave neighs/atom = 37.5375
Ave special neighs/atom = 5.85
Neighbor list builds = 22
Dangerous builds = 0

    # Decrease the iterations counter using a separate variable for the decrement
    variable new_iterations equal ${iterations}-1
    variable new_iterations equal 141-1
    variable iterations equal ${new_iterations}
    variable iterations equal 140

    # If iterations counter is not zero, continue the loop
    if "${iterations} > 0" then "jump SELF loopnucleosome"
jump SELF loopnucleosome

    # Generate a random atom index
    variable random_index equal floor(random(1,80,27939))

    # Generate a random type (assuming types 1 to 3)
    variable random_type equal floor(random(1,4,489))

    # Change the atom's type to the random type
    set atom ${random_index} type ${random_type}
    set atom 20 type ${random_type}
    set atom 20 type 2
Setting atom values ...
  1 settings made for type

    # Run for 10,000 steps
    run ${steps_per_iteration}
    run 10000
Generated 0 of 3 mixed pair_coeff terms from geometric mixing rule
Per MPI rank memory allocation (min/avg/max) = 9.913 | 10.79 | 12.5 Mbytes
---
keywords: ['Step', 'Temp', 'c_R2[0]', 'f_4[1]', 'f_4[2]', 'f_4[3]', 'f_4[4]', ]
data:
  - [27600000, 0.94661127717036, 1.53265907542485, 1233, 1591, 1170, 1331, ]
  - [27610000, 1.25157377503741, 1.52103095076221, 1234, 1591, 1170, 1331, ]
...
Loop time of 1.85072 on 10 procs for 10000 steps with 80 atoms

Performance: 466845.878 tau/day, 5403.309 timesteps/s, 432.265 katom-step/s
99.9% CPU use with 10 MPI tasks x 1 OpenMP threads

MPI task timing breakdown:
Section |  min time  |  avg time  |  max time  |%varavg| %total
---------------------------------------------------------------
Pair    | 0.0005607  | 0.064003   | 0.63398    |  75.1 |  3.46
Bond    | 0.0008478  | 0.0086505  | 0.077931   |  24.8 |  0.47
Neigh   | 0.0014557  | 0.0015488  | 0.001642   |   0.2 |  0.08
Comm    | 0.0040678  | 0.077913   | 0.72804    |  77.7 |  4.21
Output  | 0.0009814  | 0.0010424  | 0.0010969  |   0.1 |  0.06
Modify  | 1.0996     | 1.6803     | 1.8264     |  22.3 | 90.79
Other   |            | 0.01722    |            |       |  0.93

Nlocal:              8 ave          80 max           0 min
Histogram: 9 0 0 0 0 0 0 0 0 1
Nghost:            2.8 ave          28 max           0 min
Histogram: 9 0 0 0 0 0 0 0 0 1
Neighs:          300.3 ave        3003 max           0 min
Histogram: 9 0 0 0 0 0 0 0 0 1
FullNghs:            0 ave           0 max           0 min
Histogram: 10 0 0 0 0 0 0 0 0 0

Total # of neighbors = 3003
Ave neighs/atom = 37.5375
Ave special neighs/atom = 5.85
Neighbor list builds = 18
Dangerous builds = 0

    # Decrease the iterations counter using a separate variable for the decrement
    variable new_iterations equal ${iterations}-1
    variable new_iterations equal 140-1
    variable iterations equal ${new_iterations}
    variable iterations equal 139

    # If iterations counter is not zero, continue the loop
    if "${iterations} > 0" then "jump SELF loopnucleosome"
jump SELF loopnucleosome

    # Generate a random atom index
    variable random_index equal floor(random(1,80,27939))

    # Generate a random type (assuming types 1 to 3)
    variable random_type equal floor(random(1,4,489))

    # Change the atom's type to the random type
    set atom ${random_index} type ${random_type}
    set atom 14 type ${random_type}
    set atom 14 type 3
Setting atom values ...
  1 settings made for type

    # Run for 10,000 steps
    run ${steps_per_iteration}
    run 10000
Generated 0 of 3 mixed pair_coeff terms from geometric mixing rule
Per MPI rank memory allocation (min/avg/max) = 9.913 | 10.79 | 12.5 Mbytes
---
keywords: ['Step', 'Temp', 'c_R2[0]', 'f_4[1]', 'f_4[2]', 'f_4[3]', 'f_4[4]', ]
data:
  - [27610000, 1.25157377503741, 1.52103095076221, 1234, 1591, 1170, 1331, ]
  - [27620000, 1.08224007386529, 1.52015058484415, 1235, 1592, 1172, 1332, ]
...
Loop time of 1.64466 on 10 procs for 10000 steps with 80 atoms

Performance: 525337.668 tau/day, 6080.297 timesteps/s, 486.424 katom-step/s
100.0% CPU use with 10 MPI tasks x 1 OpenMP threads

MPI task timing breakdown:
Section |  min time  |  avg time  |  max time  |%varavg| %total
---------------------------------------------------------------
Pair    | 0.000573   | 0.058466   | 0.57895    |  71.8 |  3.55
Bond    | 0.0007889  | 0.0079355  | 0.071491   |  23.8 |  0.48
Neigh   | 0.0018326  | 0.0019216  | 0.0019971  |   0.1 |  0.12
Comm    | 0.0036393  | 0.071159   | 0.66464    |  74.2 |  4.33
Output  | 0.0008506  | 0.00092515 | 0.0010081  |   0.0 |  0.06
Modify  | 0.95622    | 1.4871     | 1.6206     |  21.7 | 90.42
Other   |            | 0.01717    |            |       |  1.04

Nlocal:              8 ave          80 max           0 min
Histogram: 9 0 0 0 0 0 0 0 0 1
Nghost:            1.6 ave          16 max           0 min
Histogram: 9 0 0 0 0 0 0 0 0 1
Neighs:          300.3 ave        3003 max           0 min
Histogram: 9 0 0 0 0 0 0 0 0 1
FullNghs:            0 ave           0 max           0 min
Histogram: 10 0 0 0 0 0 0 0 0 0

Total # of neighbors = 3003
Ave neighs/atom = 37.5375
Ave special neighs/atom = 5.85
Neighbor list builds = 26
Dangerous builds = 0
