LAMMPS (17 Apr 2024)
OMP_NUM_THREADS environment is not set. Defaulting to 1 thread. (src/comm.cpp:98)
  using 1 OpenMP thread(s) per MPI task
Reading data file ...
  orthogonal box = (0 0 0) to (200 200 200)
  1 by 2 by 5 MPI processor grid
  reading atom labelmap ...
  reading bond labelmap ...
  reading angle labelmap ...
  reading dihedral labelmap ...
  reading atoms ...
  80 atoms
  scanning bonds ...
  6 = max bonds/atom
  scanning angles ...
  1 = max angles/atom
  scanning dihedrals ...
  1 = max dihedrals/atom
  orthogonal box = (0 0 0) to (200 200 200)
  1 by 2 by 5 MPI processor grid
  reading bonds ...
  79 bonds
  reading angles ...
  78 angles
  reading dihedrals ...
  77 dihedrals
Finding 1-2 1-3 1-4 neighbors ...
  special bond factors lj:    0        0        0       
  special bond factors coul:  0        0        0       
     2 = max # of 1-2 neighbors
     2 = max # of 1-3 neighbors
     4 = max # of 1-4 neighbors
    11 = max # of special neighbors
  special bonds CPU = 0.000 seconds
  read_data CPU = 0.004 seconds
Finding 1-2 1-3 1-4 neighbors ...
  special bond factors lj:    0        0        0.5     
  special bond factors coul:  0        0        0.5     
     2 = max # of 1-2 neighbors
     2 = max # of 1-3 neighbors
     4 = max # of 1-4 neighbors
    11 = max # of special neighbors
  special bonds CPU = 0.000 seconds
80 atoms in group chromatin
26 atoms in group Mtype
Generated 0 of 3 mixed pair_coeff terms from geometric mixing rule
Neighbor list info ...
  update: every = 1 steps, delay = 0 steps, check = yes
  max neighbors/atom: 2000, page size: 100000
  master list distance cutoff = 10
  ghost atom cutoff = 10
  binsize = 5, bins = 40 40 40
  2 neighbor lists, perpetual/occasional/extra = 1 1 0
  (1) pair morse, perpetual
      attributes: half, newton on
      pair build: half/bin/newton
      stencil: half/bin/3d
      bin: standard
  (2) compute coord/atom, occasional
      attributes: full, newton on
      pair build: full/bin
      stencil: full/bin/3d
      bin: standard
Setting up Verlet run ...
  Unit style    : lj
  Current step  : 0
  Time step     : 0.01
Per MPI rank memory allocation (min/avg/max) = 8.396 | 8.613 | 8.983 Mbytes
   Step          Temp     
         0   1            
     10000   1.0347814    
     20000   0.9955688    
     30000   0.95639706   
     40000   1.0682265    
     50000   1.1604692    
     60000   0.93940392   
     70000   0.84660668   
     80000   1.0870737    
     90000   1.1331939    
    100000   0.99646611   
    110000   1.1919831    
    120000   0.94885199   
    130000   0.95048719   
    140000   1.0707427    
    150000   1.0492619    
    160000   1.0917147    
    170000   0.94738299   
    180000   0.98885292   
    190000   0.95440203   
    200000   0.99617028   
    210000   1.0743074    
    220000   0.95123674   
    230000   0.85196637   
    240000   1.0765894    
    250000   1.0730867    
    260000   0.96493898   
    270000   1.123263     
    280000   0.91129067   
    290000   0.99403646   
    300000   0.92020071   
    310000   1.0635054    
    320000   0.86930816   
    330000   0.8186792    
    340000   0.79145054   
    350000   1.1642448    
    360000   0.86059547   
    370000   0.94111992   
    380000   1.0978803    
    390000   0.9387492    
    400000   1.0230397    
    410000   0.94500653   
    420000   1.0640769    
    430000   1.1511649    
    440000   1.1364933    
    450000   1.0208669    
    460000   1.0392561    
    470000   1.0129899    
    480000   1.2646051    
    490000   0.85146417   
    500000   0.89548531   
    510000   0.95068861   
    520000   0.97863967   
    530000   0.96375705   
    540000   0.98070271   
    550000   0.86165038   
    560000   0.88454413   
    570000   0.92095164   
    580000   0.99723421   
    590000   1.0518781    
    600000   0.96095579   
    610000   0.99612287   
    620000   0.99336539   
    630000   1.0186654    
    640000   1.3176512    
    650000   1.2238313    
    660000   0.93679585   
    670000   1.0620447    
    680000   1.0506609    
    690000   1.1800133    
    700000   0.90378654   
    710000   1.1784029    
    720000   1.056831     
    730000   1.062461     
    740000   0.96725837   
    750000   1.1162901    
    760000   1.1916809    
    770000   0.96112894   
    780000   0.98853052   
    790000   0.96254444   
    800000   1.0055517    
    810000   0.93236489   
    820000   1.0709384    
    830000   1.0898029    
    840000   0.9402191    
    850000   1.0794741    
    860000   1.2872949    
    870000   1.1256883    
    880000   0.97367907   
    890000   0.9953349    
    900000   1.0602896    
    910000   1.1871463    
    920000   0.92860171   
    930000   0.97661599   
    940000   1.1584585    
    950000   0.89550907   
    960000   1.1080981    
    970000   1.2269373    
    980000   1.0033262    
    990000   0.97673833   
   1000000   1.036138     
Loop time of 48.8272 on 10 procs for 1000000 steps with 80 atoms

Performance: 17695066.953 tau/day, 20480.402 timesteps/s, 1.638 Matom-step/s
100.0% CPU use with 10 MPI tasks x 1 OpenMP threads

MPI task timing breakdown:
Section |  min time  |  avg time  |  max time  |%varavg| %total
---------------------------------------------------------------
Pair    | 0.036743   | 3.6668     | 30.191     | 471.4 |  7.51
Bond    | 0.059793   | 0.77468    | 6.4832     | 217.5 |  1.59
Neigh   | 0.8189     | 0.85857    | 0.87982    |   2.4 |  1.76
Comm    | 0.2582     | 4.3137     | 33.635     | 479.5 |  8.83
Output  | 0.0011657  | 0.0050964  | 0.0057287  |   1.9 |  0.01
Modify  | 0.10406    | 0.45277    | 3.1628     | 135.1 |  0.93
Other   |            | 38.76      |            |       | 79.37

Nlocal:              8 ave          72 max           0 min
Histogram: 8 1 0 0 0 0 0 0 0 1
Nghost:              8 ave          72 max           0 min
Histogram: 8 1 0 0 0 0 0 0 0 1
Neighs:          300.3 ave        2983 max           0 min
Histogram: 9 0 0 0 0 0 0 0 0 1
FullNghs:            0 ave           0 max           0 min
Histogram: 10 0 0 0 0 0 0 0 0 0

Total # of neighbors = 3003
Ave neighs/atom = 37.5375
Ave special neighs/atom = 5.85
Neighbor list builds = 16677
Dangerous builds = 0
System init for write_restart ...
Generated 0 of 3 mixed pair_coeff terms from geometric mixing rule
Read molecule template AM_post:
# This is a molecule template for molecule 1
  1 molecules
  0 fragments
  2 atoms with max type 2
  0 bonds with max type 0
  0 angles with max type 0
  0 dihedrals with max type 0
  0 impropers with max type 0
Read molecule template AM_pre:
# This is a molecule template for molecule 1
  1 molecules
  0 fragments
  2 atoms with max type 3
  0 bonds with max type 0
  0 angles with max type 0
  0 dihedrals with max type 0
  0 impropers with max type 0
Read molecule template AU_post:
# This is a molecule template for molecule 1
  1 molecules
  0 fragments
  2 atoms with max type 1
  0 bonds with max type 0
  0 angles with max type 0
  0 dihedrals with max type 0
  0 impropers with max type 0
Read molecule template AU_pre:
# This is a molecule template for molecule 1
  1 molecules
  0 fragments
  2 atoms with max type 2
  0 bonds with max type 0
  0 angles with max type 0
  0 dihedrals with max type 0
  0 impropers with max type 0
Read molecule template MA_post:
# This is a molecule template for molecule 1
  1 molecules
  0 fragments
  2 atoms with max type 3
  0 bonds with max type 0
  0 angles with max type 0
  0 dihedrals with max type 0
  0 impropers with max type 0
Read molecule template MA_pre:
# This is a molecule template for molecule 1
  1 molecules
  0 fragments
  2 atoms with max type 3
  0 bonds with max type 0
  0 angles with max type 0
  0 dihedrals with max type 0
  0 impropers with max type 0
Read molecule template MU_post:
# This is a molecule template for molecule 1
  1 molecules
  0 fragments
  2 atoms with max type 3
  0 bonds with max type 0
  0 angles with max type 0
  0 dihedrals with max type 0
  0 impropers with max type 0
Read molecule template MU_pre:
# This is a molecule template for molecule 1
  1 molecules
  0 fragments
  2 atoms with max type 3
  0 bonds with max type 0
  0 angles with max type 0
  0 dihedrals with max type 0
  0 impropers with max type 0
dynamic group bond_react_MASTER_group defined

CITE-CITE-CITE-CITE-CITE-CITE-CITE-CITE-CITE-CITE-CITE-CITE-CITE

Your simulation uses code contributions which should be cited:
- fix bond/react: reacter.org doi:10.1016/j.polymer.2017.09.038, doi:10.1021/acs.macromol.0c02012
The log file lists these citations in BibTeX format.

CITE-CITE-CITE-CITE-CITE-CITE-CITE-CITE-CITE-CITE-CITE-CITE-CITE

Generated 0 of 3 mixed pair_coeff terms from geometric mixing rule
Neighbor list info ...
  update: every = 1 steps, delay = 0 steps, check = yes
  max neighbors/atom: 2000, page size: 100000
  master list distance cutoff = 10
  ghost atom cutoff = 10
  binsize = 5, bins = 40 40 40
  3 neighbor lists, perpetual/occasional/extra = 1 2 0
  (1) pair morse, perpetual
      attributes: half, newton on
      pair build: half/bin/newton
      stencil: half/bin/3d
      bin: standard
  (2) compute coord/atom, occasional
      attributes: full, newton on
      pair build: full/bin
      stencil: full/bin/3d
      bin: standard
  (3) fix bond/react, occasional, copy from (1)
      attributes: half, newton on
      pair build: copy
      stencil: none
      bin: none
Setting up Verlet run ...
  Unit style    : lj
  Current step  : 1000000
  Time step     : 0.001
Per MPI rank memory allocation (min/avg/max) = 8.712 | 8.926 | 9.295 Mbytes
---
keywords: ['Step', 'Temp', 'c_R2[0]', 'f_4[1]', 'f_4[2]', 'f_4[3]', 'f_4[4]', ]
data:
  - [1000000, 1.03613802778219, 2.11178525784985, 0, 0, 0, 0, ]
reacted_atom_IDs: reacUA 25 44
  - [1010000, 1.0032970335423, 2.16536966905999, 0, 0, 1, 0, ]
reacted_atom_IDs: reacMU 64 47
reacted_atom_IDs: reacUM 63 27
reacted_atom_IDs: reacAU 74 58
reacted_atom_IDs: reacUM 62 46
reacted_atom_IDs: reacUA 61 9
reacted_atom_IDs: reacUM 79 39
  - [1020000, 1.20936220664451, 2.09248344544152, 1, 1, 2, 3, ]
reacted_atom_IDs: reacMU 41 4
reacted_atom_IDs: reacMU 35 52
reacted_atom_IDs: reacUM 7 75
reacted_atom_IDs: reacUA 25 6
reacted_atom_IDs: reacAU 28 62
reacted_atom_IDs: reacUA 56 71
  - [1030000, 1.10674750093538, 2.09284985519744, 2, 3, 4, 4, ]
reacted_atom_IDs: reacUA 60 45
reacted_atom_IDs: reacUA 59 5
reacted_atom_IDs: reacMU 78 49
reacted_atom_IDs: reacAU 29 63
reacted_atom_IDs: reacMU 72 55
reacted_atom_IDs: reacAU 28 46
reacted_atom_IDs: reacAU 41 80
  - [1040000, 0.95737682845475, 2.00715840835876, 5, 5, 6, 4, ]
reacted_atom_IDs: reacUM 1 69
reacted_atom_IDs: reacUM 53 5
reacted_atom_IDs: reacUM 60 6
reacted_atom_IDs: reacAU 4 39
reacted_atom_IDs: reacAU 74 59
reacted_atom_IDs: reacAU 37 79
  - [1050000, 0.947843088825042, 2.09630706139811, 8, 5, 6, 7, ]
reacted_atom_IDs: reacUM 53 63
reacted_atom_IDs: reacMU 34 66
reacted_atom_IDs: reacUM 63 77
reacted_atom_IDs: reacMU 51 79
  - [1060000, 1.10531101765934, 2.06016288490838, 8, 7, 6, 9, ]
reacted_atom_IDs: reacAU 14 67
reacted_atom_IDs: reacAU 23 76
reacted_atom_IDs: reacUA 25 43
  - [1070000, 0.903570453057124, 2.12029373759875, 10, 7, 7, 9, ]
reacted_atom_IDs: reacMU 29 67
reacted_atom_IDs: reacUM 53 68
reacted_atom_IDs: reacUA 5 78
reacted_atom_IDs: reacAU 55 3
  - [1080000, 0.936688248600971, 2.08130476504633, 11, 8, 8, 10, ]
reacted_atom_IDs: reacMU 65 76
reacted_atom_IDs: reacUA 2 55
reacted_atom_IDs: reacUA 77 4
  - [1090000, 0.857778249871201, 2.06391861674683, 11, 9, 10, 10, ]
reacted_atom_IDs: reacMU 51 78
reacted_atom_IDs: reacMU 66 33
  - [1100000, 0.991427528583764, 2.10612117581006, 11, 11, 10, 10, ]
reacted_atom_IDs: reacUM 7 59
reacted_atom_IDs: reacAU 57 75
reacted_atom_IDs: reacUA 63 28
reacted_atom_IDs: reacMU 23 4
reacted_atom_IDs: reacUA 69 18
reacted_atom_IDs: reacMU 11 75
  - [1110000, 0.988933634619984, 2.10783264946992, 12, 13, 12, 11, ]
reacted_atom_IDs: reacAU 78 63
reacted_atom_IDs: reacAU 50 30
reacted_atom_IDs: reacUA 15 52
reacted_atom_IDs: reacAU 74 56
reacted_atom_IDs: reacUM 2 55
  - [1120000, 0.983017441116855, 2.10726785731555, 15, 13, 13, 12, ]
reacted_atom_IDs: reacUM 55 71
reacted_atom_IDs: reacUM 1 56
reacted_atom_IDs: reacAU 4 77
reacted_atom_IDs: reacUM 61 46
reacted_atom_IDs: reacMU 29 77
  - [1130000, 1.02698947978126, 2.04586622537119, 16, 14, 13, 15, ]
reacted_atom_IDs: reacUM 46 62
  - [1140000, 1.02112257148203, 2.04343242431768, 16, 14, 13, 16, ]
reacted_atom_IDs: reacUA 53 35
  - [1150000, 1.19607258587818, 2.07157620844337, 16, 14, 14, 16, ]
reacted_atom_IDs: reacMU 78 52
reacted_atom_IDs: reacMU 49 30
reacted_atom_IDs: reacUM 6 44
reacted_atom_IDs: reacUM 46 63
  - [1160000, 1.06063820676403, 2.05337787174577, 16, 16, 14, 18, ]
reacted_atom_IDs: reacAU 72 56
reacted_atom_IDs: reacUM 61 45
reacted_atom_IDs: reacUM 60 24
reacted_atom_IDs: reacUM 7 28
reacted_atom_IDs: reacAU 66 2
reacted_atom_IDs: reacUM 68 2
  - [1170000, 0.950064006678305, 2.01087671911335, 18, 16, 14, 22, ]
reacted_atom_IDs: reacMU 72 56
reacted_atom_IDs: reacMU 50 31
reacted_atom_IDs: reacAU 56 71
reacted_atom_IDs: reacUA 17 38
  - [1180000, 0.964609128289796, 2.07214768717101, 19, 18, 15, 22, ]
reacted_atom_IDs: reacUA 15 76
reacted_atom_IDs: reacMU 23 43
reacted_atom_IDs: reacUA 17 37
reacted_atom_IDs: reacUM 27 9
reacted_atom_IDs: reacUM 68 3
  - [1190000, 0.997542541892641, 1.96382966783344, 19, 19, 17, 24, ]
reacted_atom_IDs: reacAU 78 3
  - [1200000, 1.09212037770316, 1.9952921904876, 20, 19, 17, 24, ]
reacted_atom_IDs: reacUM 24 58
reacted_atom_IDs: reacUA 53 67
  - [1210000, 0.96533571771898, 1.99630017684553, 20, 19, 18, 25, ]
reacted_atom_IDs: reacAU 56 2
  - [1220000, 0.996023101109482, 2.04538556112594, 21, 19, 18, 25, ]
reacted_atom_IDs: reacUA 28 77
reacted_atom_IDs: reacMU 4 42
reacted_atom_IDs: reacUM 58 76
reacted_atom_IDs: reacUA 28 48
reacted_atom_IDs: reacMU 66 2
reacted_atom_IDs: reacAU 4 24
  - [1230000, 1.07362331619671, 2.04148330495787, 22, 21, 20, 26, ]
reacted_atom_IDs: reacMU 78 3
reacted_atom_IDs: reacAU 43 6
reacted_atom_IDs: reacUA 55 72
reacted_atom_IDs: reacAU 2 54
  - [1240000, 1.06165799101368, 2.0248471622876, 24, 22, 21, 26, ]
reacted_atom_IDs: reacMU 75 54
reacted_atom_IDs: reacMU 43 24
reacted_atom_IDs: reacUM 70 18
reacted_atom_IDs: reacMU 30 10
reacted_atom_IDs: reacAU 56 76
reacted_atom_IDs: reacMU 2 40
reacted_atom_IDs: reacAU 34 69
reacted_atom_IDs: reacUA 9 75
  - [1250000, 0.976006009815901, 2.1213852211862, 26, 26, 22, 27, ]
reacted_atom_IDs: reacUA 53 66
reacted_atom_IDs: reacAU 40 18
reacted_atom_IDs: reacMU 2 38
reacted_atom_IDs: reacUA 53 13
reacted_atom_IDs: reacMU 79 48
reacted_atom_IDs: reacUM 70 18
  - [1260000, 1.01468162526976, 2.10364734122116, 27, 28, 24, 28, ]
reacted_atom_IDs: reacUM 68 37
reacted_atom_IDs: reacMU 78 66
reacted_atom_IDs: reacUM 1 19
  - [1270000, 0.997705485938663, 2.03033949412309, 27, 29, 24, 30, ]
reacted_atom_IDs: reacAU 56 44
reacted_atom_IDs: reacMU 4 44
  - [1280000, 1.07641311479459, 2.08411641773611, 28, 30, 24, 30, ]
reacted_atom_IDs: reacAU 44 5
reacted_atom_IDs: reacAU 44 7
  - [1290000, 0.932920593292844, 2.15405433210268, 30, 30, 24, 30, ]
reacted_atom_IDs: reacAU 38 55
reacted_atom_IDs: reacUM 16 35
reacted_atom_IDs: reacUM 62 6
  - [1300000, 1.05788988446272, 2.09822998787298, 31, 30, 24, 32, ]
reacted_atom_IDs: reacUA 35 14
reacted_atom_IDs: reacUA 9 29
reacted_atom_IDs: reacMU 56 22
reacted_atom_IDs: reacAU 52 36
  - [1310000, 1.10638313111579, 2.06507471699301, 32, 31, 26, 32, ]
reacted_atom_IDs: reacAU 79 9
reacted_atom_IDs: reacMU 34 14
reacted_atom_IDs: reacMU 2 39
  - [1320000, 0.996699181161134, 2.13091248777973, 33, 33, 26, 32, ]
reacted_atom_IDs: reacUM 62 5
reacted_atom_IDs: reacUA 15 33
reacted_atom_IDs: reacUM 59 7
reacted_atom_IDs: reacAU 39 1
  - [1330000, 1.13698215227899, 2.07018474965993, 34, 33, 27, 34, ]
reacted_atom_IDs: reacAU 54 16
reacted_atom_IDs: reacUA 53 34
reacted_atom_IDs: reacAU 52 37
reacted_atom_IDs: reacUA 28 48
reacted_atom_IDs: reacAU 44 5
  - [1340000, 1.10627717604209, 2.11006472602264, 37, 33, 29, 34, ]
reacted_atom_IDs: reacMU 44 5
reacted_atom_IDs: reacAU 10 28
reacted_atom_IDs: reacUM 63 80
reacted_atom_IDs: reacUM 27 9
reacted_atom_IDs: reacMU 52 34
reacted_atom_IDs: reacMU 64 48
  - [1350000, 1.11794638823594, 2.12059021561634, 38, 36, 29, 36, ]
reacted_atom_IDs: reacMU 22 37
reacted_atom_IDs: reacMU 52 36
  - [1360000, 1.02424449735518, 2.19660277357916, 38, 38, 29, 36, ]
reacted_atom_IDs: reacMU 2 67
reacted_atom_IDs: reacAU 36 53
  - [1370000, 0.913965926391797, 2.12202066710992, 39, 39, 29, 36, ]
reacted_atom_IDs: reacAU 10 26
  - [1380000, 1.1392629670405, 2.08951562551526, 40, 39, 29, 36, ]
reacted_atom_IDs: reacUA 68 37
reacted_atom_IDs: reacUM 46 28
  - [1390000, 0.892257993122043, 2.11786642613414, 40, 39, 30, 37, ]
reacted_atom_IDs: reacUA 80 48
reacted_atom_IDs: reacAU 66 35
reacted_atom_IDs: reacMU 23 55
reacted_atom_IDs: reacMU 79 26
reacted_atom_IDs: reacUM 68 16
reacted_atom_IDs: reacMU 49 72
  - [1400000, 0.994194988130648, 2.10593763553797, 41, 42, 31, 38, ]
reacted_atom_IDs: reacAU 67 17
reacted_atom_IDs: reacAU 26 58
reacted_atom_IDs: reacUA 80 5
reacted_atom_IDs: reacMU 78 5
reacted_atom_IDs: reacAU 47 62
  - [1410000, 1.09266725310012, 2.12137497899582, 44, 43, 32, 38, ]
reacted_atom_IDs: reacMU 72 13
reacted_atom_IDs: reacMU 5 62
  - [1420000, 1.04716262563138, 2.14030025101856, 44, 45, 32, 38, ]
reacted_atom_IDs: reacAU 49 16
reacted_atom_IDs: reacMU 51 16
reacted_atom_IDs: reacUA 19 38
  - [1430000, 0.981187743687398, 2.13372145923803, 45, 46, 33, 38, ]
reacted_atom_IDs: reacUA 18 51
reacted_atom_IDs: reacUA 6 62
reacted_atom_IDs: reacUM 18 35
reacted_atom_IDs: reacMU 14 69
  - [1440000, 1.05879503296566, 2.13771395625316, 45, 47, 35, 39, ]
reacted_atom_IDs: reacAU 26 59
reacted_atom_IDs: reacAU 47 8
reacted_atom_IDs: reacMU 47 62
  - [1450000, 1.03676566898826, 2.13667906526159, 47, 48, 35, 39, ]
reacted_atom_IDs: reacMU 66 33
reacted_atom_IDs: reacUM 35 17
reacted_atom_IDs: reacUM 70 51
reacted_atom_IDs: reacMU 72 53
  - [1460000, 1.11327453717527, 2.11310117215081, 47, 50, 35, 41, ]
reacted_atom_IDs: reacUA 45 62
reacted_atom_IDs: reacUA 46 30
reacted_atom_IDs: reacAU 5 46
reacted_atom_IDs: reacAU 67 35
  - [1470000, 0.917360226050523, 2.13683882878046, 49, 50, 37, 41, ]
reacted_atom_IDs: reacAU 26 60
reacted_atom_IDs: reacUA 70 49
reacted_atom_IDs: reacUM 68 35
reacted_atom_IDs: reacAU 14 70
  - [1480000, 1.10081326090832, 2.22388683657806, 51, 50, 38, 42, ]
reacted_atom_IDs: reacAU 69 17
reacted_atom_IDs: reacUA 9 47
reacted_atom_IDs: reacUM 68 17
reacted_atom_IDs: reacUM 68 49
  - [1490000, 1.066906715486, 2.15478214749095, 52, 50, 39, 44, ]
reacted_atom_IDs: reacUM 19 37
  - [1500000, 0.7986001048014, 2.16631806296036, 52, 50, 39, 45, ]
reacted_atom_IDs: reacAU 26 7
reacted_atom_IDs: reacAU 50 18
reacted_atom_IDs: reacMU 44 62
reacted_atom_IDs: reacUA 45 62
reacted_atom_IDs: reacUM 51 18
reacted_atom_IDs: reacAU 50 68
  - [1510000, 0.982031532760201, 2.16482463844125, 55, 51, 40, 46, ]
reacted_atom_IDs: reacMU 50 76
reacted_atom_IDs: reacUM 45 62
reacted_atom_IDs: reacAU 74 6
reacted_atom_IDs: reacAU 44 62
  - [1520000, 1.11859762015548, 2.18336955050339, 57, 52, 40, 47, ]
reacted_atom_IDs: reacMU 79 38
reacted_atom_IDs: reacUM 80 1
reacted_atom_IDs: reacUA 35 16
reacted_atom_IDs: reacUA 49 69
reacted_atom_IDs: reacAU 34 15
  - [1530000, 0.938538681284679, 2.20641505445749, 58, 53, 42, 48, ]
reacted_atom_IDs: reacAU 78 51
  - [1540000, 0.895365339116596, 2.18469090123946, 59, 53, 42, 48, ]
reacted_atom_IDs: reacUA 63 44
reacted_atom_IDs: reacUM 28 48
reacted_atom_IDs: reacAU 64 45
reacted_atom_IDs: reacUM 48 6
reacted_atom_IDs: reacUM 6 77
reacted_atom_IDs: reacUM 25 60
reacted_atom_IDs: reacUM 9 73
reacted_atom_IDs: reacUA 6 50
reacted_atom_IDs: reacMU 56 21
  - [1550000, 0.993916959616581, 2.1824458591697, 60, 54, 44, 53, ]
reacted_atom_IDs: reacUM 63 47
reacted_atom_IDs: reacAU 26 61
reacted_atom_IDs: reacMU 26 61
reacted_atom_IDs: reacMU 36 69
reacted_atom_IDs: reacMU 65 50
reacted_atom_IDs: reacUA 28 50
reacted_atom_IDs: reacUM 49 29
  - [1560000, 1.19495844081735, 2.21158530182035, 61, 57, 45, 55, ]
reacted_atom_IDs: reacUA 80 38
reacted_atom_IDs: reacMU 10 30
reacted_atom_IDs: reacMU 14 71
reacted_atom_IDs: reacAU 64 77
  - [1570000, 1.01202408864407, 2.17069090780698, 62, 59, 46, 55, ]
reacted_atom_IDs: reacMU 31 51
reacted_atom_IDs: reacUM 28 46
reacted_atom_IDs: reacMU 79 44
reacted_atom_IDs: reacUM 60 7
reacted_atom_IDs: reacUM 18 70
reacted_atom_IDs: reacUA 17 71
  - [1580000, 0.890946277486093, 2.16156548134172, 62, 61, 47, 58, ]
reacted_atom_IDs: reacUM 6 77
reacted_atom_IDs: reacAU 30 48
  - [1590000, 1.22610227777575, 2.16093798545572, 63, 61, 47, 59, ]
reacted_atom_IDs: reacUA 77 5
reacted_atom_IDs: reacAU 39 1
reacted_atom_IDs: reacAU 43 25
reacted_atom_IDs: reacMU 30 48
reacted_atom_IDs: reacUA 46 78
  - [1600000, 1.07453009816809, 2.20444616198423, 65, 62, 49, 59, ]
reacted_atom_IDs: reacMU 64 78
reacted_atom_IDs: reacAU 26 7
reacted_atom_IDs: reacAU 53 73
  - [1610000, 1.08171765973718, 2.19162787002212, 67, 63, 49, 59, ]
reacted_atom_IDs: reacUA 28 61
reacted_atom_IDs: reacUM 80 38
reacted_atom_IDs: reacAU 79 46
  - [1620000, 1.06751442387005, 2.14254106848054, 68, 63, 50, 60, ]
reacted_atom_IDs: reacAU 76 6
reacted_atom_IDs: reacMU 43 25
  - [1630000, 0.886425014561529, 2.16776012662188, 69, 64, 50, 60, ]
reacted_atom_IDs: reacAU 30 49
reacted_atom_IDs: reacUA 19 4
  - [1640000, 0.898348842297487, 2.19793385314539, 70, 64, 51, 60, ]
reacted_atom_IDs: reacMU 3 20
  - [1650000, 0.867886102372415, 2.2077138172223, 70, 65, 51, 60, ]
reacted_atom_IDs: reacMU 79 46
reacted_atom_IDs: reacMU 76 8
reacted_atom_IDs: reacUA 80 66
reacted_atom_IDs: reacUM 37 1
  - [1660000, 1.15861333923748, 2.17523978766138, 70, 67, 52, 61, ]
reacted_atom_IDs: reacMU 36 68
reacted_atom_IDs: reacMU 32 49
reacted_atom_IDs: reacMU 26 7
reacted_atom_IDs: reacUM 9 75
  - [1670000, 1.09977003266124, 2.14068356341577, 70, 70, 52, 62, ]
reacted_atom_IDs: reacUA 47 30
reacted_atom_IDs: reacUM 70 16
reacted_atom_IDs: reacMU 52 4
  - [1680000, 0.874115500954115, 2.13460558221855, 70, 71, 53, 63, ]
reacted_atom_IDs: reacUM 70 50
reacted_atom_IDs: reacMU 46 62
reacted_atom_IDs: reacAU 20 38
  - [1690000, 1.02268160705021, 2.15397695298093, 71, 72, 53, 64, ]
reacted_atom_IDs: reacAU 12 29
reacted_atom_IDs: reacUM 19 38
reacted_atom_IDs: reacMU 22 5
reacted_atom_IDs: reacAU 46 27
  - [1700000, 1.07788853579001, 2.12017283275354, 73, 73, 53, 65, ]
reacted_atom_IDs: reacUA 18 72
reacted_atom_IDs: reacAU 51 16
reacted_atom_IDs: reacUM 18 71
reacted_atom_IDs: reacMU 49 16
reacted_atom_IDs: reacUM 35 66
reacted_atom_IDs: reacAU 46 60
reacted_atom_IDs: reacMU 10 30
reacted_atom_IDs: reacUM 35 15
reacted_atom_IDs: reacAU 30 63
  - [1710000, 0.913305545656076, 2.13900904617264, 76, 75, 54, 68, ]
reacted_atom_IDs: reacAU 4 38
  - [1720000, 0.859217111269705, 2.1569115542447, 77, 75, 54, 68, ]
reacted_atom_IDs: reacUA 37 20
reacted_atom_IDs: reacUM 28 45
  - [1730000, 1.02023893214877, 2.17327034733552, 77, 75, 55, 69, ]
reacted_atom_IDs: reacUM 70 20
reacted_atom_IDs: reacUA 77 48
reacted_atom_IDs: reacAU 69 37
  - [1740000, 1.03417573644922, 2.13474738238223, 78, 75, 56, 70, ]
reacted_atom_IDs: reacUA 1 67
reacted_atom_IDs: reacAU 74 50
  - [1750000, 1.02942594844422, 2.12756585589803, 79, 75, 57, 70, ]
reacted_atom_IDs: reacMU 25 58
reacted_atom_IDs: reacUM 20 37
reacted_atom_IDs: reacMU 26 60
  - [1760000, 1.0579203308862, 2.15141206826065, 79, 77, 57, 71, ]
reacted_atom_IDs: reacUA 75 7
reacted_atom_IDs: reacUA 45 62
  - [1770000, 0.956131926608361, 2.10078009915146, 79, 77, 59, 71, ]
reacted_atom_IDs: reacMU 52 73
reacted_atom_IDs: reacUM 35 67
reacted_atom_IDs: reacUM 71 50
reacted_atom_IDs: reacUA 50 73
  - [1780000, 0.926190407586454, 2.18047318912758, 79, 78, 60, 73, ]
reacted_atom_IDs: reacUA 71 51
reacted_atom_IDs: reacUA 20 39
reacted_atom_IDs: reacAU 68 35
reacted_atom_IDs: reacAU 3 37
reacted_atom_IDs: reacAU 30 47
  - [1790000, 0.895049362262839, 2.14546996180823, 82, 78, 62, 73, ]
reacted_atom_IDs: reacMU 68 35
  - [1800000, 1.06227414892212, 2.14330331572613, 82, 79, 62, 73, ]
reacted_atom_IDs: reacMU 78 62
reacted_atom_IDs: reacUA 45 78
  - [1810000, 0.922324015905188, 2.17136356950867, 82, 80, 63, 73, ]
reacted_atom_IDs: reacUM 19 72
reacted_atom_IDs: reacUA 50 74
reacted_atom_IDs: reacAU 46 66
  - [1820000, 0.908191953971977, 2.19132092033082, 83, 80, 64, 74, ]
reacted_atom_IDs: reacUA 50 16
reacted_atom_IDs: reacUA 72 21
reacted_atom_IDs: reacAU 8 75
reacted_atom_IDs: reacUM 70 37
reacted_atom_IDs: reacMU 52 73
  - [1830000, 1.11647897532403, 2.17380840865543, 84, 81, 66, 75, ]
reacted_atom_IDs: reacMU 46 78
reacted_atom_IDs: reacMU 34 48
  - [1840000, 0.881544115401001, 2.16059126461397, 84, 83, 66, 75, ]
reacted_atom_IDs: reacMU 79 63
reacted_atom_IDs: reacUA 72 52
reacted_atom_IDs: reacMU 35 16
reacted_atom_IDs: reacUA 80 65
reacted_atom_IDs: reacUA 15 49
reacted_atom_IDs: reacMU 64 47
  - [1850000, 0.841607589562095, 2.20638186315704, 84, 86, 69, 75, ]
reacted_atom_IDs: reacAU 36 72
  - [1860000, 1.10544375705616, 2.19714126058949, 85, 86, 69, 75, ]
reacted_atom_IDs: reacAU 64 45
reacted_atom_IDs: reacUA 37 68
reacted_atom_IDs: reacAU 2 67
  - [1870000, 0.911919261101813, 2.19980261585847, 87, 86, 70, 75, ]
reacted_atom_IDs: reacUM 15 49
reacted_atom_IDs: reacMU 76 27
  - [1880000, 1.03367081919874, 2.18248033542555, 87, 87, 70, 76, ]
reacted_atom_IDs: reacMU 5 38
reacted_atom_IDs: reacMU 78 45
reacted_atom_IDs: reacMU 5 74
reacted_atom_IDs: reacUM 17 51
  - [1890000, 1.0467259002926, 2.16074386859549, 87, 90, 70, 77, ]
reacted_atom_IDs: reacUA 49 16
reacted_atom_IDs: reacAU 35 49
  - [1900000, 0.998233397378406, 2.16872962757965, 88, 90, 71, 77, ]
reacted_atom_IDs: reacAU 69 37
reacted_atom_IDs: reacAU 58 28
reacted_atom_IDs: reacUM 9 75
reacted_atom_IDs: reacUM 77 28
  - [1910000, 0.962380224434752, 2.21012553821172, 90, 90, 71, 79, ]
reacted_atom_IDs: reacUA 50 5
reacted_atom_IDs: reacAU 74 50
reacted_atom_IDs: reacMU 26 6
reacted_atom_IDs: reacUA 20 38
  - [1920000, 0.985029540581111, 2.16556361352683, 91, 91, 73, 79, ]
reacted_atom_IDs: reacAU 69 18
reacted_atom_IDs: reacMU 34 16
reacted_atom_IDs: reacUM 80 65
  - [1930000, 1.01007522760737, 2.18717517363668, 92, 92, 73, 80, ]
reacted_atom_IDs: reacAU 16 70
reacted_atom_IDs: reacUA 1 40
reacted_atom_IDs: reacAU 16 51
reacted_atom_IDs: reacMU 79 29
reacted_atom_IDs: reacMU 73 51
  - [1940000, 1.15591157305523, 2.24083046232321, 94, 94, 74, 80, ]
reacted_atom_IDs: reacUM 19 37
reacted_atom_IDs: reacAU 64 80
reacted_atom_IDs: reacMU 6 50
  - [1950000, 0.939548614370353, 2.22500997568991, 95, 95, 74, 81, ]
reacted_atom_IDs: reacUA 15 48
reacted_atom_IDs: reacUA 20 4
reacted_atom_IDs: reacAU 50 20
  - [1960000, 1.25693004985891, 2.22743365498971, 96, 95, 76, 81, ]
reacted_atom_IDs: reacAU 63 1
reacted_atom_IDs: reacUA 15 69
reacted_atom_IDs: reacAU 36 17
  - [1970000, 1.09412168610796, 2.18060836499459, 98, 95, 77, 81, ]
reacted_atom_IDs: reacUA 28 76
reacted_atom_IDs: reacMU 26 7
reacted_atom_IDs: reacUM 71 17
reacted_atom_IDs: reacUM 75 52
reacted_atom_IDs: reacMU 12 76
  - [1980000, 0.98138556454767, 2.16886370932146, 98, 97, 78, 83, ]
reacted_atom_IDs: reacMU 50 18
reacted_atom_IDs: reacMU 36 68
reacted_atom_IDs: reacAU 47 65
reacted_atom_IDs: reacUM 19 40
reacted_atom_IDs: reacMU 64 80
reacted_atom_IDs: reacAU 27 77
  - [1990000, 0.992775314207884, 2.19403199820908, 100, 100, 78, 84, ]
reacted_atom_IDs: reacAU 79 28
reacted_atom_IDs: reacUM 19 38
reacted_atom_IDs: reacUM 9 28
  - [2000000, 0.978085920705136, 2.1612697135379, 101, 100, 78, 86, ]
...
Loop time of 205.402 on 10 procs for 1000000 steps with 80 atoms

Performance: 420639.002 tau/day, 4868.507 timesteps/s, 389.481 katom-step/s
100.0% CPU use with 10 MPI tasks x 1 OpenMP threads

MPI task timing breakdown:
Section |  min time  |  avg time  |  max time  |%varavg| %total
---------------------------------------------------------------
Pair    | 0.053969   | 6.0989     | 57.952     | 700.5 |  2.97
Bond    | 0.079831   | 0.83294    | 6.6989     | 216.1 |  0.41
Neigh   | 0.12326    | 0.15154    | 0.16435    |   3.7 |  0.07
Comm    | 0.22538    | 6.8332     | 63.893     | 728.1 |  3.33
Output  | 0.11918    | 0.12528    | 0.14846    |   2.3 |  0.06
Modify  | 136.02     | 189.55     | 203        | 194.0 | 92.28
Other   |            | 1.807      |            |       |  0.88

Nlocal:              8 ave          80 max           0 min
Histogram: 9 0 0 0 0 0 0 0 0 1
Nghost:              8 ave          80 max           0 min
Histogram: 9 0 0 0 0 0 0 0 0 1
Neighs:          300.3 ave        3003 max           0 min
Histogram: 9 0 0 0 0 0 0 0 0 1
FullNghs:            0 ave           0 max           0 min
Histogram: 10 0 0 0 0 0 0 0 0 0

Total # of neighbors = 3003
Ave neighs/atom = 37.5375
Ave special neighs/atom = 5.85
Neighbor list builds = 2063
Dangerous builds = 0
Setting atom values ...
  1 settings made for type
Generated 0 of 3 mixed pair_coeff terms from geometric mixing rule
Setting up Verlet run ...
  Unit style    : lj
  Current step  : 2000000
  Time step     : 0.001
Per MPI rank memory allocation (min/avg/max) = 9.913 | 10.53 | 12.5 Mbytes
---
keywords: ['Step', 'Temp', 'c_R2[0]', 'f_4[1]', 'f_4[2]', 'f_4[3]', 'f_4[4]', ]
data:
  - [2000000, 0.978085920705136, 2.1612697135379, 101, 100, 78, 86, ]
reacted_atom_IDs: reacMU 34 67
reacted_atom_IDs: reacMU 80 65
reacted_atom_IDs: reacMU 22 4
reacted_atom_IDs: reacAU 76 28
reacted_atom_IDs: reacUM 75 28
  - [2010000, 1.04896049426035, 2.18083049725826, 102, 103, 78, 87, ]
...
Loop time of 2.23249 on 10 procs for 10000 steps with 80 atoms

Performance: 387012.011 tau/day, 4479.306 timesteps/s, 358.344 katom-step/s
100.0% CPU use with 10 MPI tasks x 1 OpenMP threads

MPI task timing breakdown:
Section |  min time  |  avg time  |  max time  |%varavg| %total
---------------------------------------------------------------
Pair    | 0.0004884  | 0.070005   | 0.69471    |  78.7 |  3.14
Bond    | 0.000745   | 0.0090514  | 0.082882   |  25.9 |  0.41
Neigh   | 0.0014513  | 0.0017555  | 0.0018983  |   0.4 |  0.08
Comm    | 0.0021794  | 0.08346    | 0.7957     |  82.2 |  3.74
Output  | 0.0010236  | 0.0010623  | 0.0011094  |   0.1 |  0.05
Modify  | 1.4143     | 2.0482     | 2.2078     |  22.1 | 91.74
Other   |            | 0.01899    |            |       |  0.85

Nlocal:              8 ave          80 max           0 min
Histogram: 9 0 0 0 0 0 0 0 0 1
Nghost:              8 ave          80 max           0 min
Histogram: 9 0 0 0 0 0 0 0 0 1
Neighs:          300.3 ave        3003 max           0 min
Histogram: 9 0 0 0 0 0 0 0 0 1
FullNghs:            0 ave           0 max           0 min
Histogram: 10 0 0 0 0 0 0 0 0 0

Total # of neighbors = 3003
Ave neighs/atom = 37.5375
Ave special neighs/atom = 5.85
Neighbor list builds = 21
Dangerous builds = 0
Setting atom values ...
  1 settings made for type
Generated 0 of 3 mixed pair_coeff terms from geometric mixing rule
Setting up Verlet run ...
  Unit style    : lj
  Current step  : 2010000
  Time step     : 0.001
Per MPI rank memory allocation (min/avg/max) = 9.913 | 10.53 | 12.5 Mbytes
---
keywords: ['Step', 'Temp', 'c_R2[0]', 'f_4[1]', 'f_4[2]', 'f_4[3]', 'f_4[4]', ]
data:
  - [2010000, 1.04896049426035, 2.18083049725826, 102, 103, 78, 87, ]
reacted_atom_IDs: reacMU 27 77
  - [2020000, 1.03101598622257, 2.19999287346684, 102, 104, 78, 87, ]
...
Loop time of 2.2743 on 10 procs for 10000 steps with 80 atoms

Performance: 379897.414 tau/day, 4396.961 timesteps/s, 351.757 katom-step/s
99.9% CPU use with 10 MPI tasks x 1 OpenMP threads

MPI task timing breakdown:
Section |  min time  |  avg time  |  max time  |%varavg| %total
---------------------------------------------------------------
Pair    | 0.0004839  | 0.070787   | 0.70272    |  79.2 |  3.11
Bond    | 0.0006469  | 0.0091206  | 0.083888   |  26.1 |  0.40
Neigh   | 0.0012318  | 0.0015487  | 0.0017073  |   0.4 |  0.07
Comm    | 0.002059   | 0.084537   | 0.80575    |  82.7 |  3.72
Output  | 0.0010278  | 0.0010675  | 0.0011119  |   0.1 |  0.05
Modify  | 1.4482     | 2.0896     | 2.2512     |  22.2 | 91.88
Other   |            | 0.01766    |            |       |  0.78

Nlocal:              8 ave          80 max           0 min
Histogram: 9 0 0 0 0 0 0 0 0 1
Nghost:              8 ave          80 max           0 min
Histogram: 9 0 0 0 0 0 0 0 0 1
Neighs:          300.3 ave        3003 max           0 min
Histogram: 9 0 0 0 0 0 0 0 0 1
FullNghs:            0 ave           0 max           0 min
Histogram: 10 0 0 0 0 0 0 0 0 0

Total # of neighbors = 3003
Ave neighs/atom = 37.5375
Ave special neighs/atom = 5.85
Neighbor list builds = 17
Dangerous builds = 0
Setting atom values ...
  1 settings made for type
Generated 0 of 3 mixed pair_coeff terms from geometric mixing rule
Setting up Verlet run ...
  Unit style    : lj
  Current step  : 2020000
  Time step     : 0.001
Per MPI rank memory allocation (min/avg/max) = 9.913 | 10.53 | 12.5 Mbytes
---
keywords: ['Step', 'Temp', 'c_R2[0]', 'f_4[1]', 'f_4[2]', 'f_4[3]', 'f_4[4]', ]
data:
  - [2020000, 1.03101598622257, 2.19999287346684, 102, 104, 78, 87, ]
reacted_atom_IDs: reacUM 15 49
reacted_atom_IDs: reacUM 38 72
reacted_atom_IDs: reacAU 73 38
reacted_atom_IDs: reacMU 68 48
reacted_atom_IDs: reacMU 25 61
  - [2030000, 0.962668206316396, 2.1917286240948, 103, 106, 78, 89, ]
...
Loop time of 2.2981 on 10 procs for 10000 steps with 80 atoms

Performance: 375962.803 tau/day, 4351.421 timesteps/s, 348.114 katom-step/s
100.0% CPU use with 10 MPI tasks x 1 OpenMP threads

MPI task timing breakdown:
Section |  min time  |  avg time  |  max time  |%varavg| %total
---------------------------------------------------------------
Pair    | 0.000442   | 0.07327    | 0.7274     |  80.6 |  3.19
Bond    | 0.0006485  | 0.0092484  | 0.084972   |  26.2 |  0.40
Neigh   | 0.0014968  | 0.0018121  | 0.0019743  |   0.4 |  0.08
Comm    | 0.0020759  | 0.087272   | 0.83235    |  84.1 |  3.80
Output  | 0.0010406  | 0.0010766  | 0.0011356  |   0.1 |  0.05
Modify  | 1.4454     | 2.1076     | 2.275      |  22.8 | 91.71
Other   |            | 0.01779    |            |       |  0.77

Nlocal:              8 ave          80 max           0 min
Histogram: 9 0 0 0 0 0 0 0 0 1
Nghost:              8 ave          80 max           0 min
Histogram: 9 0 0 0 0 0 0 0 0 1
Neighs:          300.3 ave        3003 max           0 min
Histogram: 9 0 0 0 0 0 0 0 0 1
FullNghs:            0 ave           0 max           0 min
Histogram: 10 0 0 0 0 0 0 0 0 0

Total # of neighbors = 3003
Ave neighs/atom = 37.5375
Ave special neighs/atom = 5.85
Neighbor list builds = 21
Dangerous builds = 0
Setting atom values ...
  1 settings made for type
Generated 0 of 3 mixed pair_coeff terms from geometric mixing rule
Setting up Verlet run ...
  Unit style    : lj
  Current step  : 2030000
  Time step     : 0.001
Per MPI rank memory allocation (min/avg/max) = 9.913 | 10.53 | 12.5 Mbytes
---
keywords: ['Step', 'Temp', 'c_R2[0]', 'f_4[1]', 'f_4[2]', 'f_4[3]', 'f_4[4]', ]
data:
  - [2030000, 0.962668206316396, 2.1917286240948, 103, 106, 78, 89, ]
reacted_atom_IDs: reacUA 17 36
reacted_atom_IDs: reacUA 72 4
reacted_atom_IDs: reacUM 28 62
reacted_atom_IDs: reacAU 16 52
  - [2040000, 0.955457932023926, 2.28270741539151, 104, 106, 80, 90, ]
...
Loop time of 2.27382 on 10 procs for 10000 steps with 80 atoms

Performance: 379976.964 tau/day, 4397.882 timesteps/s, 351.831 katom-step/s
100.0% CPU use with 10 MPI tasks x 1 OpenMP threads

MPI task timing breakdown:
Section |  min time  |  avg time  |  max time  |%varavg| %total
---------------------------------------------------------------
Pair    | 0.0004685  | 0.071462   | 0.70946    |  79.6 |  3.14
Bond    | 0.000679   | 0.0091648  | 0.084227   |  26.1 |  0.40
Neigh   | 0.0014399  | 0.0017289  | 0.0018759  |   0.4 |  0.08
Comm    | 0.0023015  | 0.085386   | 0.81323    |  83.0 |  3.76
Output  | 0.0010392  | 0.0010783  | 0.0011319  |   0.1 |  0.05
Modify  | 1.4402     | 2.0871     | 2.2503     |  22.4 | 91.79
Other   |            | 0.01786    |            |       |  0.79

Nlocal:              8 ave          80 max           0 min
Histogram: 9 0 0 0 0 0 0 0 0 1
Nghost:              8 ave          80 max           0 min
Histogram: 9 0 0 0 0 0 0 0 0 1
Neighs:          300.3 ave        3003 max           0 min
Histogram: 9 0 0 0 0 0 0 0 0 1
FullNghs:            0 ave           0 max           0 min
Histogram: 10 0 0 0 0 0 0 0 0 0

Total # of neighbors = 3003
Ave neighs/atom = 37.5375
Ave special neighs/atom = 5.85
Neighbor list builds = 21
Dangerous builds = 0
Setting atom values ...
  1 settings made for type
Generated 0 of 3 mixed pair_coeff terms from geometric mixing rule
Setting up Verlet run ...
  Unit style    : lj
  Current step  : 2040000
  Time step     : 0.001
Per MPI rank memory allocation (min/avg/max) = 9.913 | 10.53 | 12.5 Mbytes
---
keywords: ['Step', 'Temp', 'c_R2[0]', 'f_4[1]', 'f_4[2]', 'f_4[3]', 'f_4[4]', ]
data:
  - [2040000, 0.955457932023926, 2.28270741539151, 104, 106, 80, 90, ]
reacted_atom_IDs: reacUA 37 16
reacted_atom_IDs: reacUM 71 38
reacted_atom_IDs: reacMU 47 66
reacted_atom_IDs: reacMU 48 5
reacted_atom_IDs: reacUM 40 3
reacted_atom_IDs: reacAU 27 9
reacted_atom_IDs: reacMU 50 36
  - [2050000, 0.889098407350514, 2.16849352962029, 105, 109, 81, 92, ]
...
Loop time of 1.74491 on 10 procs for 10000 steps with 80 atoms

Performance: 495155.528 tau/day, 5730.967 timesteps/s, 458.477 katom-step/s
99.9% CPU use with 10 MPI tasks x 1 OpenMP threads

MPI task timing breakdown:
Section |  min time  |  avg time  |  max time  |%varavg| %total
---------------------------------------------------------------
Pair    | 0.0004767  | 0.054841   | 0.54333    |  69.5 |  3.14
Bond    | 0.0006877  | 0.0073922  | 0.066991   |  23.1 |  0.42
Neigh   | 0.0012894  | 0.0015728  | 0.0016724  |   0.4 |  0.09
Comm    | 0.0022081  | 0.066111   | 0.62579    |  72.6 |  3.79
Output  | 0.0007545  | 0.00079018 | 0.0008414  |   0.0 |  0.05
Modify  | 1.0998     | 1.5973     | 1.7228     |  19.7 | 91.54
Other   |            | 0.01691    |            |       |  0.97

Nlocal:              8 ave          80 max           0 min
Histogram: 9 0 0 0 0 0 0 0 0 1
Nghost:              8 ave          80 max           0 min
Histogram: 9 0 0 0 0 0 0 0 0 1
Neighs:          300.3 ave        3003 max           0 min
Histogram: 9 0 0 0 0 0 0 0 0 1
FullNghs:            0 ave           0 max           0 min
Histogram: 10 0 0 0 0 0 0 0 0 0

Total # of neighbors = 3003
Ave neighs/atom = 37.5375
Ave special neighs/atom = 5.85
Neighbor list builds = 24
Dangerous builds = 0
Setting atom values ...
  1 settings made for type
Generated 0 of 3 mixed pair_coeff terms from geometric mixing rule
Setting up Verlet run ...
  Unit style    : lj
  Current step  : 2050000
  Time step     : 0.001
Per MPI rank memory allocation (min/avg/max) = 9.913 | 10.53 | 12.5 Mbytes
---
keywords: ['Step', 'Temp', 'c_R2[0]', 'f_4[1]', 'f_4[2]', 'f_4[3]', 'f_4[4]', ]
data:
  - [2050000, 0.889098407350514, 2.16849352962029, 105, 109, 81, 92, ]
reacted_atom_IDs: reacAU 35 15
reacted_atom_IDs: reacUA 40 73
  - [2060000, 1.02833299202023, 2.18023966199916, 106, 109, 82, 92, ]
...
Loop time of 1.9804 on 10 procs for 10000 steps with 80 atoms

Performance: 436276.062 tau/day, 5049.491 timesteps/s, 403.959 katom-step/s
100.0% CPU use with 10 MPI tasks x 1 OpenMP threads

MPI task timing breakdown:
Section |  min time  |  avg time  |  max time  |%varavg| %total
---------------------------------------------------------------
Pair    | 0.0004492  | 0.061568   | 0.6104     |  73.7 |  3.11
Bond    | 0.0006771  | 0.0082024  | 0.074621   |  24.4 |  0.41
Neigh   | 0.0012631  | 0.0015787  | 0.0017162  |   0.4 |  0.08
Comm    | 0.00206    | 0.074191   | 0.70318    |  77.0 |  3.75
Output  | 0.0009523  | 0.00098906 | 0.0010358  |   0.0 |  0.05
Modify  | 1.2561     | 1.8157     | 1.9574     |  20.8 | 91.68
Other   |            | 0.01815    |            |       |  0.92

Nlocal:              8 ave          80 max           0 min
Histogram: 9 0 0 0 0 0 0 0 0 1
Nghost:              8 ave          80 max           0 min
Histogram: 9 0 0 0 0 0 0 0 0 1
Neighs:          300.3 ave        3003 max           0 min
Histogram: 9 0 0 0 0 0 0 0 0 1
FullNghs:            0 ave           0 max           0 min
Histogram: 10 0 0 0 0 0 0 0 0 0

Total # of neighbors = 3003
Ave neighs/atom = 37.5375
Ave special neighs/atom = 5.85
Neighbor list builds = 19
Dangerous builds = 0
Setting atom values ...
  1 settings made for type
Generated 0 of 3 mixed pair_coeff terms from geometric mixing rule
Setting up Verlet run ...
  Unit style    : lj
  Current step  : 2060000
  Time step     : 0.001
Per MPI rank memory allocation (min/avg/max) = 9.913 | 10.53 | 12.5 Mbytes
---
keywords: ['Step', 'Temp', 'c_R2[0]', 'f_4[1]', 'f_4[2]', 'f_4[3]', 'f_4[4]', ]
data:
  - [2060000, 1.02833299202023, 2.18023966199916, 106, 109, 82, 92, ]
reacted_atom_IDs: reacMU 53 15
reacted_atom_IDs: reacUA 71 2
reacted_atom_IDs: reacAU 64 49
reacted_atom_IDs: reacMU 54 16
reacted_atom_IDs: reacAU 15 37
  - [2070000, 1.07900380620352, 2.22231986078519, 108, 111, 83, 92, ]
...
Loop time of 1.8592 on 10 procs for 10000 steps with 80 atoms

Performance: 464716.019 tau/day, 5378.658 timesteps/s, 430.293 katom-step/s
100.0% CPU use with 10 MPI tasks x 1 OpenMP threads

MPI task timing breakdown:
Section |  min time  |  avg time  |  max time  |%varavg| %total
---------------------------------------------------------------
Pair    | 0.0005066  | 0.059077   | 0.58565    |  72.2 |  3.18
Bond    | 0.0006916  | 0.007921   | 0.071642   |  23.9 |  0.43
Neigh   | 0.0014354  | 0.0017462  | 0.0018727  |   0.4 |  0.09
Comm    | 0.0023881  | 0.071415   | 0.67497    |  75.3 |  3.84
Output  | 0.0008546  | 0.00089318 | 0.0009551  |   0.0 |  0.05
Modify  | 1.1644     | 1.7006     | 1.8358     |  20.5 | 91.47
Other   |            | 0.01758    |            |       |  0.95

Nlocal:              8 ave          80 max           0 min
Histogram: 9 0 0 0 0 0 0 0 0 1
Nghost:              8 ave          80 max           0 min
Histogram: 9 0 0 0 0 0 0 0 0 1
Neighs:          300.3 ave        3003 max           0 min
Histogram: 9 0 0 0 0 0 0 0 0 1
FullNghs:            0 ave           0 max           0 min
Histogram: 10 0 0 0 0 0 0 0 0 0

Total # of neighbors = 3003
Ave neighs/atom = 37.5375
Ave special neighs/atom = 5.85
Neighbor list builds = 24
Dangerous builds = 0
Setting atom values ...
  1 settings made for type
Generated 0 of 3 mixed pair_coeff terms from geometric mixing rule
Setting up Verlet run ...
  Unit style    : lj
  Current step  : 2070000
  Time step     : 0.001
Per MPI rank memory allocation (min/avg/max) = 9.913 | 10.53 | 12.5 Mbytes
---
keywords: ['Step', 'Temp', 'c_R2[0]', 'f_4[1]', 'f_4[2]', 'f_4[3]', 'f_4[4]', ]
data:
  - [2070000, 1.07900380620352, 2.22231986078519, 108, 111, 83, 92, ]
reacted_atom_IDs: reacAU 36 69
  - [2080000, 0.886670392401314, 2.11051463972034, 109, 111, 83, 92, ]
...
Loop time of 2.05404 on 10 procs for 10000 steps with 80 atoms

Performance: 420634.549 tau/day, 4868.455 timesteps/s, 389.476 katom-step/s
100.0% CPU use with 10 MPI tasks x 1 OpenMP threads

MPI task timing breakdown:
Section |  min time  |  avg time  |  max time  |%varavg| %total
---------------------------------------------------------------
Pair    | 0.0005388  | 0.065604   | 0.65077    |  76.2 |  3.19
Bond    | 0.0007544  | 0.0085534  | 0.077958   |  25.0 |  0.42
Neigh   | 0.0009796  | 0.0012245  | 0.0013404  |   0.4 |  0.06
Comm    | 0.0022198  | 0.078461   | 0.7466     |  79.5 |  3.82
Output  | 0.0010219  | 0.0010606  | 0.0011062  |   0.1 |  0.05
Modify  | 1.2871     | 1.8814     | 2.0307     |  21.7 | 91.59
Other   |            | 0.01776    |            |       |  0.86

Nlocal:              8 ave          80 max           0 min
Histogram: 9 0 0 0 0 0 0 0 0 1
Nghost:              8 ave          80 max           0 min
Histogram: 9 0 0 0 0 0 0 0 0 1
Neighs:          300.3 ave        3003 max           0 min
Histogram: 9 0 0 0 0 0 0 0 0 1
FullNghs:            0 ave           0 max           0 min
Histogram: 10 0 0 0 0 0 0 0 0 0

Total # of neighbors = 3003
Ave neighs/atom = 37.5375
Ave special neighs/atom = 5.85
Neighbor list builds = 15
Dangerous builds = 0
Setting atom values ...
  1 settings made for type
Generated 0 of 3 mixed pair_coeff terms from geometric mixing rule
Setting up Verlet run ...
  Unit style    : lj
  Current step  : 2080000
  Time step     : 0.001
Per MPI rank memory allocation (min/avg/max) = 9.913 | 10.53 | 12.5 Mbytes
---
keywords: ['Step', 'Temp', 'c_R2[0]', 'f_4[1]', 'f_4[2]', 'f_4[3]', 'f_4[4]', ]
data:
  - [2080000, 0.886670392401314, 2.11051463972034, 109, 111, 83, 92, ]
reacted_atom_IDs: reacUA 17 53
reacted_atom_IDs: reacMU 60 9
  - [2090000, 0.834973707462274, 2.17037497362102, 109, 112, 84, 92, ]
...
Loop time of 1.56807 on 10 procs for 10000 steps with 80 atoms

Performance: 550997.202 tau/day, 6377.282 timesteps/s, 510.183 katom-step/s
100.0% CPU use with 10 MPI tasks x 1 OpenMP threads

MPI task timing breakdown:
Section |  min time  |  avg time  |  max time  |%varavg| %total
---------------------------------------------------------------
Pair    | 0.0004752  | 0.049996   | 0.49505    |  66.3 |  3.19
Bond    | 0.000624   | 0.0068631  | 0.061762   |  22.1 |  0.44
Neigh   | 0.0007893  | 0.0010409  | 0.0011122  |   0.4 |  0.07
Comm    | 0.0020694  | 0.060684   | 0.57238    |  69.3 |  3.87
Output  | 0.0006794  | 0.00071692 | 0.0007606  |   0.0 |  0.05
Modify  | 0.97607    | 1.4314     | 1.5458     |  19.0 | 91.28
Other   |            | 0.01741    |            |       |  1.11

Nlocal:              8 ave          80 max           0 min
Histogram: 9 0 0 0 0 0 0 0 0 1
Nghost:              8 ave          80 max           0 min
Histogram: 9 0 0 0 0 0 0 0 0 1
Neighs:          300.3 ave        3003 max           0 min
Histogram: 9 0 0 0 0 0 0 0 0 1
FullNghs:            0 ave           0 max           0 min
Histogram: 10 0 0 0 0 0 0 0 0 0

Total # of neighbors = 3003
Ave neighs/atom = 37.5375
Ave special neighs/atom = 5.85
Neighbor list builds = 16
Dangerous builds = 0
Setting atom values ...
  1 settings made for type
Generated 0 of 3 mixed pair_coeff terms from geometric mixing rule
Setting up Verlet run ...
  Unit style    : lj
  Current step  : 2090000
  Time step     : 0.001
Per MPI rank memory allocation (min/avg/max) = 9.913 | 10.53 | 12.5 Mbytes
---
keywords: ['Step', 'Temp', 'c_R2[0]', 'f_4[1]', 'f_4[2]', 'f_4[3]', 'f_4[4]', ]
data:
  - [2090000, 0.834973707462274, 2.17037497362102, 109, 112, 84, 92, ]
reacted_atom_IDs: reacMU 79 32
reacted_atom_IDs: reacAU 8 75
reacted_atom_IDs: reacUM 17 53
  - [2100000, 1.04380006525716, 2.2187799745697, 110, 113, 84, 93, ]
...
Loop time of 1.66641 on 10 procs for 10000 steps with 80 atoms

Performance: 518480.120 tau/day, 6000.927 timesteps/s, 480.074 katom-step/s
100.0% CPU use with 10 MPI tasks x 1 OpenMP threads

MPI task timing breakdown:
Section |  min time  |  avg time  |  max time  |%varavg| %total
---------------------------------------------------------------
Pair    | 0.0004209  | 0.05298    | 0.52496    |  68.4 |  3.18
Bond    | 0.0005698  | 0.0071784  | 0.065136   |  22.8 |  0.43
Neigh   | 0.0012163  | 0.0015013  | 0.0015867  |   0.4 |  0.09
Comm    | 0.0020236  | 0.064239   | 0.60662    |  71.4 |  3.85
Output  | 0.0008073  | 0.00084807 | 0.0008949  |   0.0 |  0.05
Modify  | 1.0416     | 1.5236     | 1.6459     |  19.5 | 91.43
Other   |            | 0.01608    |            |       |  0.97

Nlocal:              8 ave          80 max           0 min
Histogram: 9 0 0 0 0 0 0 0 0 1
Nghost:            7.8 ave          78 max           0 min
Histogram: 9 0 0 0 0 0 0 0 0 1
Neighs:          300.3 ave        3003 max           0 min
Histogram: 9 0 0 0 0 0 0 0 0 1
FullNghs:            0 ave           0 max           0 min
Histogram: 10 0 0 0 0 0 0 0 0 0

Total # of neighbors = 3003
Ave neighs/atom = 37.5375
Ave special neighs/atom = 5.85
Neighbor list builds = 22
Dangerous builds = 0
Setting atom values ...
  1 settings made for type
Generated 0 of 3 mixed pair_coeff terms from geometric mixing rule
Setting up Verlet run ...
  Unit style    : lj
  Current step  : 2100000
  Time step     : 0.001
Per MPI rank memory allocation (min/avg/max) = 9.913 | 10.53 | 12.5 Mbytes
---
keywords: ['Step', 'Temp', 'c_R2[0]', 'f_4[1]', 'f_4[2]', 'f_4[3]', 'f_4[4]', ]
data:
  - [2100000, 1.04380006525716, 2.2187799745697, 110, 113, 84, 93, ]
reacted_atom_IDs: reacMU 51 70
reacted_atom_IDs: reacMU 5 48
reacted_atom_IDs: reacUM 17 37
  - [2110000, 0.948784053555323, 2.14843945871999, 110, 115, 84, 94, ]
...
Loop time of 1.97062 on 10 procs for 10000 steps with 80 atoms

Performance: 438441.530 tau/day, 5074.555 timesteps/s, 405.964 katom-step/s
100.0% CPU use with 10 MPI tasks x 1 OpenMP threads

MPI task timing breakdown:
Section |  min time  |  avg time  |  max time  |%varavg| %total
---------------------------------------------------------------
Pair    | 0.0004427  | 0.061745   | 0.6122     |  73.8 |  3.13
Bond    | 0.0006133  | 0.0081517  | 0.074465   |  24.5 |  0.41
Neigh   | 0.0012532  | 0.0015607  | 0.0016844  |   0.4 |  0.08
Comm    | 0.0021657  | 0.074265   | 0.70443    |  77.1 |  3.77
Output  | 0.0008497  | 0.00088747 | 0.000934   |   0.0 |  0.05
Modify  | 1.2457     | 1.8063     | 1.9478     |  20.8 | 91.66
Other   |            | 0.01775    |            |       |  0.90

Nlocal:              8 ave          80 max           0 min
Histogram: 9 0 0 0 0 0 0 0 0 1
Nghost:            7.7 ave          77 max           0 min
Histogram: 9 0 0 0 0 0 0 0 0 1
Neighs:          300.3 ave        3003 max           0 min
Histogram: 9 0 0 0 0 0 0 0 0 1
FullNghs:            0 ave           0 max           0 min
Histogram: 10 0 0 0 0 0 0 0 0 0

Total # of neighbors = 3003
Ave neighs/atom = 37.5375
Ave special neighs/atom = 5.85
Neighbor list builds = 20
Dangerous builds = 0
Setting atom values ...
  1 settings made for type
Generated 0 of 3 mixed pair_coeff terms from geometric mixing rule
Setting up Verlet run ...
  Unit style    : lj
  Current step  : 2110000
  Time step     : 0.001
Per MPI rank memory allocation (min/avg/max) = 9.913 | 10.53 | 12.5 Mbytes
---
keywords: ['Step', 'Temp', 'c_R2[0]', 'f_4[1]', 'f_4[2]', 'f_4[3]', 'f_4[4]', ]
data:
  - [2110000, 0.948784053555323, 2.14843945871999, 110, 115, 84, 94, ]
reacted_atom_IDs: reacUA 62 7
reacted_atom_IDs: reacUM 40 4
  - [2120000, 1.01389815663888, 2.21409821359308, 110, 115, 85, 95, ]
...
Loop time of 1.72784 on 10 procs for 10000 steps with 80 atoms

Performance: 500045.519 tau/day, 5787.564 timesteps/s, 463.005 katom-step/s
100.0% CPU use with 10 MPI tasks x 1 OpenMP threads

MPI task timing breakdown:
Section |  min time  |  avg time  |  max time  |%varavg| %total
---------------------------------------------------------------
Pair    | 0.0004616  | 0.053991   | 0.53487    |  69.0 |  3.12
Bond    | 0.0006551  | 0.0073258  | 0.06629    |  23.0 |  0.42
Neigh   | 0.0009516  | 0.0012135  | 0.0013088  |   0.4 |  0.07
Comm    | 0.002092   | 0.065375   | 0.61773    |  72.0 |  3.78
Output  | 0.0008088  | 0.00084591 | 0.0008901  |   0.0 |  0.05
Modify  | 1.0909     | 1.5821     | 1.7058     |  19.5 | 91.56
Other   |            | 0.01701    |            |       |  0.98

Nlocal:              8 ave          80 max           0 min
Histogram: 9 0 0 0 0 0 0 0 0 1
Nghost:            7.1 ave          71 max           0 min
Histogram: 9 0 0 0 0 0 0 0 0 1
Neighs:          300.3 ave        3003 max           0 min
Histogram: 9 0 0 0 0 0 0 0 0 1
FullNghs:            0 ave           0 max           0 min
Histogram: 10 0 0 0 0 0 0 0 0 0

Total # of neighbors = 3003
Ave neighs/atom = 37.5375
Ave special neighs/atom = 5.85
Neighbor list builds = 17
Dangerous builds = 0
Setting atom values ...
  1 settings made for type
Generated 0 of 3 mixed pair_coeff terms from geometric mixing rule
Setting up Verlet run ...
  Unit style    : lj
  Current step  : 2120000
  Time step     : 0.001
Per MPI rank memory allocation (min/avg/max) = 9.913 | 10.53 | 12.5 Mbytes
---
keywords: ['Step', 'Temp', 'c_R2[0]', 'f_4[1]', 'f_4[2]', 'f_4[3]', 'f_4[4]', ]
data:
  - [2120000, 1.01389815663888, 2.21409821359308, 110, 115, 85, 95, ]
reacted_atom_IDs: reacUM 71 2
reacted_atom_IDs: reacUA 62 27
reacted_atom_IDs: reacMU 60 7
reacted_atom_IDs: reacMU 8 75
reacted_atom_IDs: reacMU 18 73
  - [2130000, 1.02256904545673, 2.23412249796636, 110, 118, 86, 96, ]
...
Loop time of 2.12113 on 10 procs for 10000 steps with 80 atoms

Performance: 407329.748 tau/day, 4714.465 timesteps/s, 377.157 katom-step/s
100.0% CPU use with 10 MPI tasks x 1 OpenMP threads

MPI task timing breakdown:
Section |  min time  |  avg time  |  max time  |%varavg| %total
---------------------------------------------------------------
Pair    | 0.0004355  | 0.065376   | 0.6486     |  76.0 |  3.08
Bond    | 0.0006383  | 0.0085518  | 0.078235   |  25.1 |  0.40
Neigh   | 0.0016006  | 0.0019277  | 0.0020658  |   0.4 |  0.09
Comm    | 0.0020793  | 0.078018   | 0.74292    |  79.4 |  3.68
Output  | 0.0009484  | 0.00098798 | 0.0010296  |   0.0 |  0.05
Modify  | 1.3563     | 1.9477     | 2.0965     |  21.2 | 91.83
Other   |            | 0.01853    |            |       |  0.87

Nlocal:              8 ave          80 max           0 min
Histogram: 9 0 0 0 0 0 0 0 0 1
Nghost:            6.2 ave          62 max           0 min
Histogram: 9 0 0 0 0 0 0 0 0 1
Neighs:          300.3 ave        3003 max           0 min
Histogram: 9 0 0 0 0 0 0 0 0 1
FullNghs:            0 ave           0 max           0 min
Histogram: 10 0 0 0 0 0 0 0 0 0

Total # of neighbors = 3003
Ave neighs/atom = 37.5375
Ave special neighs/atom = 5.85
Neighbor list builds = 23
Dangerous builds = 0
Setting atom values ...
  1 settings made for type
Generated 0 of 3 mixed pair_coeff terms from geometric mixing rule
Setting up Verlet run ...
  Unit style    : lj
  Current step  : 2130000
  Time step     : 0.001
Per MPI rank memory allocation (min/avg/max) = 9.913 | 10.53 | 12.5 Mbytes
---
keywords: ['Step', 'Temp', 'c_R2[0]', 'f_4[1]', 'f_4[2]', 'f_4[3]', 'f_4[4]', ]
data:
  - [2130000, 1.02256904545673, 2.23412249796636, 110, 118, 86, 96, ]
reacted_atom_IDs: reacMU 61 27
reacted_atom_IDs: reacAU 16 53
reacted_atom_IDs: reacUA 62 27
reacted_atom_IDs: reacUA 4 48
reacted_atom_IDs: reacUA 13 31
  - [2140000, 0.916376589233287, 2.18111466244228, 111, 119, 89, 96, ]
...
Loop time of 1.91025 on 10 procs for 10000 steps with 80 atoms

Performance: 452295.811 tau/day, 5234.905 timesteps/s, 418.792 katom-step/s
100.0% CPU use with 10 MPI tasks x 1 OpenMP threads

MPI task timing breakdown:
Section |  min time  |  avg time  |  max time  |%varavg| %total
---------------------------------------------------------------
Pair    | 0.0003929  | 0.05969    | 0.59162    |  72.6 |  3.12
Bond    | 0.0005535  | 0.0079374  | 0.072172   |  24.0 |  0.42
Neigh   | 0.0012539  | 0.0015905  | 0.0017064  |   0.4 |  0.08
Comm    | 0.0021876  | 0.071887   | 0.68098    |  75.7 |  3.76
Output  | 0.000853   | 0.00089114 | 0.0009356  |   0.0 |  0.05
Modify  | 1.2081     | 1.7502     | 1.8872     |  20.5 | 91.62
Other   |            | 0.01809    |            |       |  0.95

Nlocal:              8 ave          80 max           0 min
Histogram: 9 0 0 0 0 0 0 0 0 1
Nghost:            7.1 ave          71 max           0 min
Histogram: 9 0 0 0 0 0 0 0 0 1
Neighs:          300.3 ave        3003 max           0 min
Histogram: 9 0 0 0 0 0 0 0 0 1
FullNghs:            0 ave           0 max           0 min
Histogram: 10 0 0 0 0 0 0 0 0 0

Total # of neighbors = 3003
Ave neighs/atom = 37.5375
Ave special neighs/atom = 5.85
Neighbor list builds = 22
Dangerous builds = 0
Setting atom values ...
  1 settings made for type
Generated 0 of 3 mixed pair_coeff terms from geometric mixing rule
Setting up Verlet run ...
  Unit style    : lj
  Current step  : 2140000
  Time step     : 0.001
Per MPI rank memory allocation (min/avg/max) = 9.913 | 10.53 | 12.5 Mbytes
---
keywords: ['Step', 'Temp', 'c_R2[0]', 'f_4[1]', 'f_4[2]', 'f_4[3]', 'f_4[4]', ]
data:
  - [2140000, 0.916376589233287, 2.18111466244228, 111, 119, 89, 96, ]
reacted_atom_IDs: reacAU 22 40
reacted_atom_IDs: reacAU 36 71
reacted_atom_IDs: reacMU 75 52
  - [2150000, 0.930809772621934, 2.23956828237584, 113, 120, 89, 96, ]
...
Loop time of 1.97845 on 10 procs for 10000 steps with 80 atoms

Performance: 436705.623 tau/day, 5054.463 timesteps/s, 404.357 katom-step/s
100.0% CPU use with 10 MPI tasks x 1 OpenMP threads

MPI task timing breakdown:
Section |  min time  |  avg time  |  max time  |%varavg| %total
---------------------------------------------------------------
Pair    | 0.0004692  | 0.062624   | 0.62075    |  74.3 |  3.17
Bond    | 0.0006609  | 0.0082728  | 0.075204   |  24.5 |  0.42
Neigh   | 0.0011532  | 0.0014659  | 0.0016205  |   0.4 |  0.07
Comm    | 0.0023544  | 0.075025   | 0.71279    |  77.6 |  3.79
Output  | 0.0008968  | 0.00093472 | 0.0009789  |   0.0 |  0.05
Modify  | 1.2446     | 1.8119     | 1.9549     |  21.1 | 91.58
Other   |            | 0.01822    |            |       |  0.92

Nlocal:              8 ave          80 max           0 min
Histogram: 9 0 0 0 0 0 0 0 0 1
Nghost:            6.5 ave          65 max           0 min
Histogram: 9 0 0 0 0 0 0 0 0 1
Neighs:          300.3 ave        3003 max           0 min
Histogram: 9 0 0 0 0 0 0 0 0 1
FullNghs:            0 ave           0 max           0 min
Histogram: 10 0 0 0 0 0 0 0 0 0

Total # of neighbors = 3003
Ave neighs/atom = 37.5375
Ave special neighs/atom = 5.85
Neighbor list builds = 18
Dangerous builds = 0
Setting atom values ...
  1 settings made for type
Generated 0 of 3 mixed pair_coeff terms from geometric mixing rule
Setting up Verlet run ...
  Unit style    : lj
  Current step  : 2150000
  Time step     : 0.001
Per MPI rank memory allocation (min/avg/max) = 9.913 | 10.53 | 12.5 Mbytes
---
keywords: ['Step', 'Temp', 'c_R2[0]', 'f_4[1]', 'f_4[2]', 'f_4[3]', 'f_4[4]', ]
data:
  - [2150000, 0.930809772621934, 2.23956828237584, 113, 120, 89, 96, ]
reacted_atom_IDs: reacUA 28 78
reacted_atom_IDs: reacUM 2 71
reacted_atom_IDs: reacMU 36 70
reacted_atom_IDs: reacUM 38 19
  - [2160000, 1.056283506365, 2.2271066607552, 113, 121, 90, 98, ]
...
Loop time of 1.86506 on 10 procs for 10000 steps with 80 atoms

Performance: 463254.850 tau/day, 5361.746 timesteps/s, 428.940 katom-step/s
100.0% CPU use with 10 MPI tasks x 1 OpenMP threads

MPI task timing breakdown:
Section |  min time  |  avg time  |  max time  |%varavg| %total
---------------------------------------------------------------
Pair    | 0.0004912  | 0.058614   | 0.5811     |  71.9 |  3.14
Bond    | 0.0006876  | 0.0078288  | 0.071085   |  23.8 |  0.42
Neigh   | 0.001095   | 0.0014161  | 0.0015447  |   0.4 |  0.08
Comm    | 0.0021465  | 0.070704   | 0.66988    |  75.1 |  3.79
Output  | 0.0008618  | 0.00089674 | 0.0009364  |   0.0 |  0.05
Modify  | 1.1754     | 1.7082     | 1.8421     |  20.4 | 91.59
Other   |            | 0.01743    |            |       |  0.93

Nlocal:              8 ave          80 max           0 min
Histogram: 9 0 0 0 0 0 0 0 0 1
Nghost:            6.8 ave          68 max           0 min
Histogram: 9 0 0 0 0 0 0 0 0 1
Neighs:          300.3 ave        3003 max           0 min
Histogram: 9 0 0 0 0 0 0 0 0 1
FullNghs:            0 ave           0 max           0 min
Histogram: 10 0 0 0 0 0 0 0 0 0

Total # of neighbors = 3003
Ave neighs/atom = 37.5375
Ave special neighs/atom = 5.85
Neighbor list builds = 20
Dangerous builds = 0
Setting atom values ...
  1 settings made for type
Generated 0 of 3 mixed pair_coeff terms from geometric mixing rule
Setting up Verlet run ...
  Unit style    : lj
  Current step  : 2160000
  Time step     : 0.001
Per MPI rank memory allocation (min/avg/max) = 9.913 | 10.53 | 12.5 Mbytes
---
keywords: ['Step', 'Temp', 'c_R2[0]', 'f_4[1]', 'f_4[2]', 'f_4[3]', 'f_4[4]', ]
data:
  - [2160000, 1.056283506365, 2.2271066607552, 113, 121, 90, 98, ]
reacted_atom_IDs: reacMU 30 78
reacted_atom_IDs: reacUA 3 70
reacted_atom_IDs: reacAU 77 28
reacted_atom_IDs: reacAU 47 66
reacted_atom_IDs: reacMU 7 59
  - [2170000, 0.957383569756853, 2.19831975365703, 115, 123, 91, 98, ]
...
Loop time of 2.02332 on 10 procs for 10000 steps with 80 atoms

Performance: 427021.662 tau/day, 4942.380 timesteps/s, 395.390 katom-step/s
100.0% CPU use with 10 MPI tasks x 1 OpenMP threads

MPI task timing breakdown:
Section |  min time  |  avg time  |  max time  |%varavg| %total
---------------------------------------------------------------
Pair    | 0.0005386  | 0.063957   | 0.6343     |  75.2 |  3.16
Bond    | 0.0007207  | 0.0083408  | 0.076171   |  24.8 |  0.41
Neigh   | 0.0013428  | 0.0016603  | 0.0017848  |   0.4 |  0.08
Comm    | 0.0024404  | 0.076788   | 0.72868    |  78.4 |  3.80
Output  | 0.0008789  | 0.00091658 | 0.0009757  |   0.0 |  0.05
Modify  | 1.275      | 1.8541     | 2.0001     |  21.3 | 91.64
Other   |            | 0.01752    |            |       |  0.87

Nlocal:              8 ave          80 max           0 min
Histogram: 9 0 0 0 0 0 0 0 0 1
Nghost:            5.8 ave          58 max           0 min
Histogram: 9 0 0 0 0 0 0 0 0 1
Neighs:          300.3 ave        3003 max           0 min
Histogram: 9 0 0 0 0 0 0 0 0 1
FullNghs:            0 ave           0 max           0 min
Histogram: 10 0 0 0 0 0 0 0 0 0

Total # of neighbors = 3003
Ave neighs/atom = 37.5375
Ave special neighs/atom = 5.85
Neighbor list builds = 21
Dangerous builds = 0
Setting atom values ...
  1 settings made for type
Generated 0 of 3 mixed pair_coeff terms from geometric mixing rule
Setting up Verlet run ...
  Unit style    : lj
  Current step  : 2170000
  Time step     : 0.001
Per MPI rank memory allocation (min/avg/max) = 9.913 | 10.53 | 12.5 Mbytes
---
keywords: ['Step', 'Temp', 'c_R2[0]', 'f_4[1]', 'f_4[2]', 'f_4[3]', 'f_4[4]', ]
data:
  - [2170000, 0.957383569756853, 2.19831975365703, 115, 123, 91, 98, ]
reacted_atom_IDs: reacUA 37 18
reacted_atom_IDs: reacMU 78 48
reacted_atom_IDs: reacUA 72 5
reacted_atom_IDs: reacUA 13 77
  - [2180000, 0.977522900095818, 2.20575186499858, 115, 124, 94, 98, ]
...
Loop time of 2.0585 on 10 procs for 10000 steps with 80 atoms

Performance: 419722.734 tau/day, 4857.902 timesteps/s, 388.632 katom-step/s
100.0% CPU use with 10 MPI tasks x 1 OpenMP threads

MPI task timing breakdown:
Section |  min time  |  avg time  |  max time  |%varavg| %total
---------------------------------------------------------------
Pair    | 0.0004562  | 0.065493   | 0.6496     |  76.1 |  3.18
Bond    | 0.0006273  | 0.0085847  | 0.078582   |  25.2 |  0.42
Neigh   | 0.0014136  | 0.0016534  | 0.0017874  |   0.3 |  0.08
Comm    | 0.0020362  | 0.078106   | 0.74429    |  79.5 |  3.79
Output  | 0.0009377  | 0.00097744 | 0.0010261  |   0.0 |  0.05
Modify  | 1.2933     | 1.8861     | 2.0358     |  21.6 | 91.63
Other   |            | 0.01758    |            |       |  0.85

Nlocal:              8 ave          80 max           0 min
Histogram: 9 0 0 0 0 0 0 0 0 1
Nghost:            6.5 ave          65 max           0 min
Histogram: 9 0 0 0 0 0 0 0 0 1
Neighs:          300.3 ave        3003 max           0 min
Histogram: 9 0 0 0 0 0 0 0 0 1
FullNghs:            0 ave           0 max           0 min
Histogram: 10 0 0 0 0 0 0 0 0 0

Total # of neighbors = 3003
Ave neighs/atom = 37.5375
Ave special neighs/atom = 5.85
Neighbor list builds = 20
Dangerous builds = 0
Setting atom values ...
  1 settings made for type
Generated 0 of 3 mixed pair_coeff terms from geometric mixing rule
Setting up Verlet run ...
  Unit style    : lj
  Current step  : 2180000
  Time step     : 0.001
Per MPI rank memory allocation (min/avg/max) = 9.913 | 10.53 | 12.5 Mbytes
---
keywords: ['Step', 'Temp', 'c_R2[0]', 'f_4[1]', 'f_4[2]', 'f_4[3]', 'f_4[4]', ]
data:
  - [2180000, 0.977522900095818, 2.20575186499858, 115, 124, 94, 98, ]
reacted_atom_IDs: reacMU 8 77
reacted_atom_IDs: reacUM 72 18
  - [2190000, 1.06998147213526, 2.18641895907141, 115, 125, 94, 99, ]
...
Loop time of 2.22223 on 10 procs for 10000 steps with 80 atoms

Performance: 388798.993 tau/day, 4499.988 timesteps/s, 359.999 katom-step/s
100.0% CPU use with 10 MPI tasks x 1 OpenMP threads

MPI task timing breakdown:
Section |  min time  |  avg time  |  max time  |%varavg| %total
---------------------------------------------------------------
Pair    | 0.0004795  | 0.06964    | 0.69126    |  78.5 |  3.13
Bond    | 0.0006832  | 0.0090159  | 0.082838   |  25.9 |  0.41
Neigh   | 0.0012193  | 0.0015105  | 0.0016528  |   0.4 |  0.07
Comm    | 0.001938   | 0.082732   | 0.79078    |  82.1 |  3.72
Output  | 0.0010599  | 0.001096   | 0.0011416  |   0.1 |  0.05
Modify  | 1.411      | 2.0407     | 2.1989     |  22.0 | 91.83
Other   |            | 0.01752    |            |       |  0.79

Nlocal:              8 ave          80 max           0 min
Histogram: 9 0 0 0 0 0 0 0 0 1
Nghost:            7.1 ave          71 max           0 min
Histogram: 9 0 0 0 0 0 0 0 0 1
Neighs:          300.3 ave        3003 max           0 min
Histogram: 9 0 0 0 0 0 0 0 0 1
FullNghs:            0 ave           0 max           0 min
Histogram: 10 0 0 0 0 0 0 0 0 0

Total # of neighbors = 3003
Ave neighs/atom = 37.5375
Ave special neighs/atom = 5.85
Neighbor list builds = 17
Dangerous builds = 0
Setting atom values ...
  1 settings made for type
Generated 0 of 3 mixed pair_coeff terms from geometric mixing rule
Setting up Verlet run ...
  Unit style    : lj
  Current step  : 2190000
  Time step     : 0.001
Per MPI rank memory allocation (min/avg/max) = 9.913 | 10.53 | 12.5 Mbytes
---
keywords: ['Step', 'Temp', 'c_R2[0]', 'f_4[1]', 'f_4[2]', 'f_4[3]', 'f_4[4]', ]
data:
  - [2190000, 1.06998147213526, 2.18641895907141, 115, 125, 94, 99, ]
reacted_atom_IDs: reacUM 19 39
reacted_atom_IDs: reacUA 18 73
reacted_atom_IDs: reacUM 2 69
reacted_atom_IDs: reacMU 47 66
  - [2200000, 0.926072286858626, 2.15568605559805, 115, 126, 95, 101, ]
...
Loop time of 2.1166 on 10 procs for 10000 steps with 80 atoms

Performance: 408200.892 tau/day, 4724.547 timesteps/s, 377.964 katom-step/s
100.0% CPU use with 10 MPI tasks x 1 OpenMP threads

MPI task timing breakdown:
Section |  min time  |  avg time  |  max time  |%varavg| %total
---------------------------------------------------------------
Pair    | 0.000452   | 0.064886   | 0.64348    |  75.7 |  3.07
Bond    | 0.0006708  | 0.0085861  | 0.078387   |  25.1 |  0.41
Neigh   | 0.0012964  | 0.0016279  | 0.0017698  |   0.4 |  0.08
Comm    | 0.0019315  | 0.077865   | 0.74022    |  79.1 |  3.68
Output  | 0.0009758  | 0.0010195  | 0.0010712  |   0.1 |  0.05
Modify  | 1.355      | 1.9441     | 2.0927     |  21.1 | 91.85
Other   |            | 0.01855    |            |       |  0.88

Nlocal:              8 ave          80 max           0 min
Histogram: 9 0 0 0 0 0 0 0 0 1
Nghost:            7.8 ave          78 max           0 min
Histogram: 9 0 0 0 0 0 0 0 0 1
Neighs:          300.3 ave        3003 max           0 min
Histogram: 9 0 0 0 0 0 0 0 0 1
FullNghs:            0 ave           0 max           0 min
Histogram: 10 0 0 0 0 0 0 0 0 0

Total # of neighbors = 3003
Ave neighs/atom = 37.5375
Ave special neighs/atom = 5.85
Neighbor list builds = 21
Dangerous builds = 0
Setting atom values ...
  1 settings made for type
Generated 0 of 3 mixed pair_coeff terms from geometric mixing rule
Setting up Verlet run ...
  Unit style    : lj
  Current step  : 2200000
  Time step     : 0.001
Per MPI rank memory allocation (min/avg/max) = 9.913 | 10.53 | 12.5 Mbytes
---
keywords: ['Step', 'Temp', 'c_R2[0]', 'f_4[1]', 'f_4[2]', 'f_4[3]', 'f_4[4]', ]
data:
  - [2200000, 0.926072286858626, 2.15568605559805, 115, 126, 95, 101, ]
reacted_atom_IDs: reacMU 66 46
reacted_atom_IDs: reacUM 38 70
reacted_atom_IDs: reacAU 48 4
  - [2210000, 1.06087161178671, 2.13952048577818, 116, 127, 95, 102, ]
...
Loop time of 1.80505 on 10 procs for 10000 steps with 80 atoms

Performance: 478657.446 tau/day, 5540.017 timesteps/s, 443.201 katom-step/s
100.0% CPU use with 10 MPI tasks x 1 OpenMP threads

MPI task timing breakdown:
Section |  min time  |  avg time  |  max time  |%varavg| %total
---------------------------------------------------------------
Pair    | 0.0004797  | 0.056207   | 0.55711    |  70.4 |  3.11
Bond    | 0.0006486  | 0.0075131  | 0.068208   |  23.3 |  0.42
Neigh   | 0.0010333  | 0.0012851  | 0.0013924  |   0.4 |  0.07
Comm    | 0.0021266  | 0.067898   | 0.6425     |  73.5 |  3.76
Output  | 0.0007761  | 0.0008079  | 0.0008493  |   0.0 |  0.04
Modify  | 1.145      | 1.655      | 1.7835     |  19.8 | 91.69
Other   |            | 0.01631    |            |       |  0.90

Nlocal:              8 ave          80 max           0 min
Histogram: 9 0 0 0 0 0 0 0 0 1
Nghost:            7.5 ave          75 max           0 min
Histogram: 9 0 0 0 0 0 0 0 0 1
Neighs:          300.3 ave        3003 max           0 min
Histogram: 9 0 0 0 0 0 0 0 0 1
FullNghs:            0 ave           0 max           0 min
Histogram: 10 0 0 0 0 0 0 0 0 0

Total # of neighbors = 3003
Ave neighs/atom = 37.5375
Ave special neighs/atom = 5.85
Neighbor list builds = 18
Dangerous builds = 0
Setting atom values ...
  1 settings made for type
Generated 0 of 3 mixed pair_coeff terms from geometric mixing rule
Setting up Verlet run ...
  Unit style    : lj
  Current step  : 2210000
  Time step     : 0.001
Per MPI rank memory allocation (min/avg/max) = 9.913 | 10.53 | 12.5 Mbytes
---
keywords: ['Step', 'Temp', 'c_R2[0]', 'f_4[1]', 'f_4[2]', 'f_4[3]', 'f_4[4]', ]
data:
  - [2210000, 1.06087161178671, 2.13952048577818, 116, 127, 95, 102, ]
reacted_atom_IDs: reacMU 48 4
  - [2220000, 0.960449217489417, 2.12372312696703, 116, 128, 95, 102, ]
...
Loop time of 2.01073 on 10 procs for 10000 steps with 80 atoms

Performance: 429693.660 tau/day, 4973.306 timesteps/s, 397.865 katom-step/s
100.0% CPU use with 10 MPI tasks x 1 OpenMP threads

MPI task timing breakdown:
Section |  min time  |  avg time  |  max time  |%varavg| %total
---------------------------------------------------------------
Pair    | 0.0004129  | 0.061451   | 0.60934    |  73.7 |  3.06
Bond    | 0.0006011  | 0.0080977  | 0.073678   |  24.3 |  0.40
Neigh   | 0.0009387  | 0.0012521  | 0.0013964  |   0.5 |  0.06
Comm    | 0.0021372  | 0.073854   | 0.7009     |  76.9 |  3.67
Output  | 0.0008667  | 0.00090585 | 0.0009492  |   0.0 |  0.05
Modify  | 1.2888     | 1.847      | 1.9876     |  20.5 | 91.86
Other   |            | 0.0182     |            |       |  0.91

Nlocal:              8 ave          80 max           0 min
Histogram: 9 0 0 0 0 0 0 0 0 1
Nghost:            7.5 ave          75 max           0 min
Histogram: 9 0 0 0 0 0 0 0 0 1
Neighs:          300.3 ave        3003 max           0 min
Histogram: 9 0 0 0 0 0 0 0 0 1
FullNghs:            0 ave           0 max           0 min
Histogram: 10 0 0 0 0 0 0 0 0 0

Total # of neighbors = 3003
Ave neighs/atom = 37.5375
Ave special neighs/atom = 5.85
Neighbor list builds = 16
Dangerous builds = 0
Setting atom values ...
  1 settings made for type
Generated 0 of 3 mixed pair_coeff terms from geometric mixing rule
Setting up Verlet run ...
  Unit style    : lj
  Current step  : 2220000
  Time step     : 0.001
Per MPI rank memory allocation (min/avg/max) = 9.913 | 10.53 | 12.5 Mbytes
---
keywords: ['Step', 'Temp', 'c_R2[0]', 'f_4[1]', 'f_4[2]', 'f_4[3]', 'f_4[4]', ]
data:
  - [2220000, 0.960449217489417, 2.12372312696703, 116, 128, 95, 102, ]
  - [2230000, 1.15406772895789, 2.1535002292263, 116, 128, 95, 102, ]
...
Loop time of 1.99818 on 10 procs for 10000 steps with 80 atoms

Performance: 432393.145 tau/day, 5004.550 timesteps/s, 400.364 katom-step/s
100.0% CPU use with 10 MPI tasks x 1 OpenMP threads

MPI task timing breakdown:
Section |  min time  |  avg time  |  max time  |%varavg| %total
---------------------------------------------------------------
Pair    | 0.0004349  | 0.061386   | 0.60863    |  73.6 |  3.07
Bond    | 0.0006193  | 0.0081103  | 0.073979   |  24.4 |  0.41
Neigh   | 0.0009037  | 0.0011853  | 0.0013063  |   0.4 |  0.06
Comm    | 0.0018486  | 0.073784   | 0.70034    |  76.9 |  3.69
Output  | 0.0009009  | 0.00093597 | 0.0009906  |   0.0 |  0.05
Modify  | 1.2767     | 1.8347     | 1.9757     |  20.6 | 91.82
Other   |            | 0.01812    |            |       |  0.91

Nlocal:              8 ave          80 max           0 min
Histogram: 9 0 0 0 0 0 0 0 0 1
Nghost:            7.7 ave          77 max           0 min
Histogram: 9 0 0 0 0 0 0 0 0 1
Neighs:          300.3 ave        3003 max           0 min
Histogram: 9 0 0 0 0 0 0 0 0 1
FullNghs:            0 ave           0 max           0 min
Histogram: 10 0 0 0 0 0 0 0 0 0

Total # of neighbors = 3003
Ave neighs/atom = 37.5375
Ave special neighs/atom = 5.85
Neighbor list builds = 15
Dangerous builds = 0
Setting atom values ...
  1 settings made for type
Generated 0 of 3 mixed pair_coeff terms from geometric mixing rule
Setting up Verlet run ...
  Unit style    : lj
  Current step  : 2230000
  Time step     : 0.001
Per MPI rank memory allocation (min/avg/max) = 9.913 | 10.53 | 12.5 Mbytes
---
keywords: ['Step', 'Temp', 'c_R2[0]', 'f_4[1]', 'f_4[2]', 'f_4[3]', 'f_4[4]', ]
data:
  - [2230000, 1.15406772895789, 2.1535002292263, 116, 128, 95, 102, ]
reacted_atom_IDs: reacAU 22 3
reacted_atom_IDs: reacUA 69 36
reacted_atom_IDs: reacAU 35 69
  - [2240000, 0.956837157830979, 2.17867937152181, 118, 128, 96, 102, ]
...
Loop time of 1.92175 on 10 procs for 10000 steps with 80 atoms

Performance: 449591.118 tau/day, 5203.601 timesteps/s, 416.288 katom-step/s
100.0% CPU use with 10 MPI tasks x 1 OpenMP threads

MPI task timing breakdown:
Section |  min time  |  avg time  |  max time  |%varavg| %total
---------------------------------------------------------------
Pair    | 0.0004634  | 0.059238   | 0.58703    |  72.3 |  3.08
Bond    | 0.000669   | 0.0078733  | 0.071129   |  23.8 |  0.41
Neigh   | 0.0011194  | 0.0014074  | 0.0015128  |   0.4 |  0.07
Comm    | 0.0024012  | 0.071493   | 0.67593    |  75.4 |  3.72
Output  | 0.0008136  | 0.00085306 | 0.0009043  |   0.0 |  0.04
Modify  | 1.2242     | 1.7622     | 1.8981     |  20.2 | 91.70
Other   |            | 0.0187     |            |       |  0.97

Nlocal:              8 ave          80 max           0 min
Histogram: 9 0 0 0 0 0 0 0 0 1
Nghost:              8 ave          80 max           0 min
Histogram: 9 0 0 0 0 0 0 0 0 1
Neighs:          300.3 ave        3003 max           0 min
Histogram: 9 0 0 0 0 0 0 0 0 1
FullNghs:            0 ave           0 max           0 min
Histogram: 10 0 0 0 0 0 0 0 0 0

Total # of neighbors = 3003
Ave neighs/atom = 37.5375
Ave special neighs/atom = 5.85
Neighbor list builds = 18
Dangerous builds = 0
Setting atom values ...
  1 settings made for type
Generated 0 of 3 mixed pair_coeff terms from geometric mixing rule
Setting up Verlet run ...
  Unit style    : lj
  Current step  : 2240000
  Time step     : 0.001
Per MPI rank memory allocation (min/avg/max) = 9.913 | 10.53 | 12.5 Mbytes
---
keywords: ['Step', 'Temp', 'c_R2[0]', 'f_4[1]', 'f_4[2]', 'f_4[3]', 'f_4[4]', ]
data:
  - [2240000, 0.956837157830979, 2.17867937152181, 118, 128, 96, 102, ]
reacted_atom_IDs: reacUM 18 73
reacted_atom_IDs: reacAU 68 37
  - [2250000, 0.897408244728568, 2.2411093409936, 119, 128, 96, 103, ]
...
Loop time of 1.66735 on 10 procs for 10000 steps with 80 atoms

Performance: 518186.890 tau/day, 5997.533 timesteps/s, 479.803 katom-step/s
100.0% CPU use with 10 MPI tasks x 1 OpenMP threads

MPI task timing breakdown:
Section |  min time  |  avg time  |  max time  |%varavg| %total
---------------------------------------------------------------
Pair    | 0.0004578  | 0.051594   | 0.5108     |  67.4 |  3.09
Bond    | 0.0006258  | 0.0070948  | 0.063741   |  22.4 |  0.43
Neigh   | 0.000885   | 0.0011702  | 0.0012602  |   0.4 |  0.07
Comm    | 0.0020339  | 0.062614   | 0.59067    |  70.4 |  3.76
Output  | 0.0007521  | 0.00078655 | 0.0008306  |   0.0 |  0.05
Modify  | 1.057      | 1.5269     | 1.6455     |  19.0 | 91.57
Other   |            | 0.01723    |            |       |  1.03

Nlocal:              8 ave          80 max           0 min
Histogram: 9 0 0 0 0 0 0 0 0 1
Nghost:              8 ave          80 max           0 min
Histogram: 9 0 0 0 0 0 0 0 0 1
Neighs:          300.3 ave        3003 max           0 min
Histogram: 9 0 0 0 0 0 0 0 0 1
FullNghs:            0 ave           0 max           0 min
Histogram: 10 0 0 0 0 0 0 0 0 0

Total # of neighbors = 3003
Ave neighs/atom = 37.5375
Ave special neighs/atom = 5.85
Neighbor list builds = 17
Dangerous builds = 0
Setting atom values ...
  1 settings made for type
Generated 0 of 3 mixed pair_coeff terms from geometric mixing rule
Setting up Verlet run ...
  Unit style    : lj
  Current step  : 2250000
  Time step     : 0.001
Per MPI rank memory allocation (min/avg/max) = 9.913 | 10.53 | 12.5 Mbytes
---
keywords: ['Step', 'Temp', 'c_R2[0]', 'f_4[1]', 'f_4[2]', 'f_4[3]', 'f_4[4]', ]
data:
  - [2250000, 0.897408244728568, 2.2411093409936, 119, 128, 96, 103, ]
  - [2260000, 0.846485754790069, 2.09507234201665, 119, 128, 96, 103, ]
...
Loop time of 2.17679 on 10 procs for 10000 steps with 80 atoms

Performance: 396914.714 tau/day, 4593.920 timesteps/s, 367.514 katom-step/s
100.0% CPU use with 10 MPI tasks x 1 OpenMP threads

MPI task timing breakdown:
Section |  min time  |  avg time  |  max time  |%varavg| %total
---------------------------------------------------------------
Pair    | 0.000503   | 0.06772    | 0.67168    |  77.4 |  3.11
Bond    | 0.000677   | 0.0087572  | 0.079823   |  25.3 |  0.40
Neigh   | 0.0011821  | 0.0014899  | 0.0016485  |   0.4 |  0.07
Comm    | 0.0024276  | 0.081051   | 0.77083    |  80.8 |  3.72
Output  | 0.0010272  | 0.0010656  | 0.0011192  |   0.1 |  0.05
Modify  | 1.3855     | 1.9987     | 2.1532     |  21.7 | 91.82
Other   |            | 0.01803    |            |       |  0.83

Nlocal:              8 ave          80 max           0 min
Histogram: 9 0 0 0 0 0 0 0 0 1
Nghost:            7.9 ave          79 max           0 min
Histogram: 9 0 0 0 0 0 0 0 0 1
Neighs:          300.3 ave        3003 max           0 min
Histogram: 9 0 0 0 0 0 0 0 0 1
FullNghs:            0 ave           0 max           0 min
Histogram: 10 0 0 0 0 0 0 0 0 0

Total # of neighbors = 3003
Ave neighs/atom = 37.5375
Ave special neighs/atom = 5.85
Neighbor list builds = 17
Dangerous builds = 0
Setting atom values ...
  1 settings made for type
Generated 0 of 3 mixed pair_coeff terms from geometric mixing rule
Setting up Verlet run ...
  Unit style    : lj
  Current step  : 2260000
  Time step     : 0.001
Per MPI rank memory allocation (min/avg/max) = 9.913 | 10.53 | 12.5 Mbytes
---
keywords: ['Step', 'Temp', 'c_R2[0]', 'f_4[1]', 'f_4[2]', 'f_4[3]', 'f_4[4]', ]
data:
  - [2260000, 0.846485754790069, 2.09507234201665, 119, 128, 96, 103, ]
reacted_atom_IDs: reacUM 7 28
  - [2270000, 1.03434206213716, 2.14582016214386, 119, 128, 96, 104, ]
...
Loop time of 1.71613 on 10 procs for 10000 steps with 80 atoms

Performance: 503457.201 tau/day, 5827.051 timesteps/s, 466.164 katom-step/s
100.0% CPU use with 10 MPI tasks x 1 OpenMP threads

MPI task timing breakdown:
Section |  min time  |  avg time  |  max time  |%varavg| %total
---------------------------------------------------------------
Pair    | 0.0004576  | 0.052271   | 0.51766    |  67.9 |  3.05
Bond    | 0.0006795  | 0.0071831  | 0.064581   |  22.6 |  0.42
Neigh   | 0.0008536  | 0.0011373  | 0.001227   |   0.4 |  0.07
Comm    | 0.002034   | 0.063549   | 0.59908    |  70.8 |  3.70
Output  | 0.0007905  | 0.00082699 | 0.0008651  |   0.0 |  0.05
Modify  | 1.0962     | 1.573      | 1.6929     |  19.0 | 91.66
Other   |            | 0.01815    |            |       |  1.06

[...]
Histogram: 9 0 0 0 0 0 0 0 0 1
FullNghs:            0 ave           0 max           0 min
Histogram: 10 0 0 0 0 0 0 0 0 0

Total # of neighbors = 3003
Ave neighs/atom = 37.5375
Ave special neighs/atom = 5.85
Neighbor list builds = 19
Dangerous builds = 0
Setting atom values ...
  1 settings made for type
Generated 0 of 3 mixed pair_coeff terms from geometric mixing rule
Setting up Verlet run ...
  Unit style    : lj
  Current step  : 36970000
  Time step     : 0.001
Per MPI rank memory allocation (min/avg/max) = 9.913 | 10.79 | 12.5 Mbytes
---
keywords: ['Step', 'Temp', 'c_R2[0]', 'f_4[1]', 'f_4[2]', 'f_4[3]', 'f_4[4]', ]
data:
  - [36970000, 0.861785984117641, 2.2198336802512, 1796, 2174, 1712, 1972, ]
reacted_atom_IDs: reacAU 76 57
reacted_atom_IDs: reacAU 35 75
reacted_atom_IDs: reacUM 39 57
  - [36980000, 0.997941056942657, 2.19410719733623, 1798, 2174, 1712, 1973, ]
...
Loop time of 1.78117 on 10 procs for 10000 steps with 80 atoms

Performance: 485075.558 tau/day, 5614.300 timesteps/s, 449.144 katom-step/s
100.0% CPU use with 10 MPI tasks x 1 OpenMP threads

MPI task timing breakdown:
Section |  min time  |  avg time  |  max time  |%varavg| %total
---------------------------------------------------------------
Pair    | 0.0005026  | 0.061104   | 0.6057     |  73.4 |  3.43
Bond    | 0.0007454  | 0.0080882  | 0.073373   |  24.2 |  0.45
Neigh   | 0.0014491  | 0.001508   | 0.0015687  |   0.1 |  0.08
Comm    | 0.0024225  | 0.0033642  | 0.0036134  |   0.6 |  0.19
Output  | 0.0009682  | 0.0011304  | 0.0012277  |   0.2 |  0.06
Modify  | 1.078      | 1.6892     | 1.7582     |  15.7 | 94.83
Other   |            | 0.01681    |            |       |  0.94

Nlocal:              8 ave          80 max           0 min
Histogram: 9 0 0 0 0 0 0 0 0 1
Nghost:              0 ave           0 max           0 min
Histogram: 10 0 0 0 0 0 0 0 0 0
Neighs:          300.3 ave        3003 max           0 min
Histogram: 9 0 0 0 0 0 0 0 0 1
FullNghs:            0 ave           0 max           0 min
Histogram: 10 0 0 0 0 0 0 0 0 0

Total # of neighbors = 3003
Ave neighs/atom = 37.5375
Ave special neighs/atom = 5.85
Neighbor list builds = 19
Dangerous builds = 0
Setting atom values ...
  1 settings made for type
Generated 0 of 3 mixed pair_coeff terms from geometric mixing rule
Setting up Verlet run ...
  Unit style    : lj
  Current step  : 36980000
  Time step     : 0.001
Per MPI rank memory allocation (min/avg/max) = 9.913 | 10.79 | 12.5 Mbytes
---
keywords: ['Step', 'Temp', 'c_R2[0]', 'f_4[1]', 'f_4[2]', 'f_4[3]', 'f_4[4]', ]
data:
  - [36980000, 0.997941056942657, 2.19410719733623, 1798, 2174, 1712, 1973, ]
reacted_atom_IDs: reacUM 62 26
reacted_atom_IDs: reacMU 77 7
  - [36990000, 0.917884054167129, 2.19850644584299, 1798, 2175, 1712, 1974, ]
...
Loop time of 1.73065 on 10 procs for 10000 steps with 80 atoms

Performance: 499233.636 tau/day, 5778.167 timesteps/s, 462.253 katom-step/s
100.0% CPU use with 10 MPI tasks x 1 OpenMP threads

MPI task timing breakdown:
Section |  min time  |  avg time  |  max time  |%varavg| %total
---------------------------------------------------------------
Pair    | 0.0004904  | 0.059195   | 0.58675    |  72.3 |  3.42
Bond    | 0.0007403  | 0.0078858  | 0.071407   |  23.8 |  0.46
Neigh   | 0.0013284  | 0.0013627  | 0.0014099  |   0.1 |  0.08
Comm    | 0.0025024  | 0.0030567  | 0.0033214  |   0.4 |  0.18
Output  | 0.0009085  | 0.00096789 | 0.0010569  |   0.0 |  0.06
Modify  | 1.0492     | 1.641      | 1.708      |  15.4 | 94.82
Other   |            | 0.01714    |            |       |  0.99

Nlocal:              8 ave          80 max           0 min
Histogram: 9 0 0 0 0 0 0 0 0 1
Nghost:              0 ave           0 max           0 min
Histogram: 10 0 0 0 0 0 0 0 0 0
Neighs:          300.3 ave        3003 max           0 min
Histogram: 9 0 0 0 0 0 0 0 0 1
FullNghs:            0 ave           0 max           0 min
Histogram: 10 0 0 0 0 0 0 0 0 0

Total # of neighbors = 3003
Ave neighs/atom = 37.5375
Ave special neighs/atom = 5.85
Neighbor list builds = 17
Dangerous builds = 0
Setting atom values ...
  1 settings made for type
Generated 0 of 3 mixed pair_coeff terms from geometric mixing rule
Setting up Verlet run ...
  Unit style    : lj
  Current step  : 36990000
  Time step     : 0.001
Per MPI rank memory allocation (min/avg/max) = 9.913 | 10.79 | 12.5 Mbytes
---
keywords: ['Step', 'Temp', 'c_R2[0]', 'f_4[1]', 'f_4[2]', 'f_4[3]', 'f_4[4]', ]
data:
  - [36990000, 0.917884054167129, 2.19850644584299, 1798, 2175, 1712, 1974, ]
reacted_atom_IDs: reacUA 57 76
reacted_atom_IDs: reacMU 35 73
reacted_atom_IDs: reacUM 41 21
reacted_atom_IDs: reacMU 53 76
reacted_atom_IDs: reacMU 3 75
reacted_atom_IDs: reacUA 39 20
  - [37000000, 1.23142062816125, 2.21965706108468, 1798, 2178, 1714, 1975, ]
...
Loop time of 1.76492 on 10 procs for 10000 steps with 80 atoms

Performance: 489539.701 tau/day, 5665.969 timesteps/s, 453.278 katom-step/s
100.0% CPU use with 10 MPI tasks x 1 OpenMP threads

MPI task timing breakdown:
Section |  min time  |  avg time  |  max time  |%varavg| %total
---------------------------------------------------------------
Pair    | 0.0004609  | 0.060448   | 0.59912    |  73.0 |  3.42
Bond    | 0.0007827  | 0.0080085  | 0.072504   |  24.0 |  0.45
Neigh   | 0.0019459  | 0.0019939  | 0.0020576  |   0.1 |  0.11
Comm    | 0.0025147  | 0.0037143  | 0.0040084  |   0.7 |  0.21
Output  | 0.0008554  | 0.0009128  | 0.0009615  |   0.0 |  0.05
Modify  | 1.0685     | 1.6723     | 1.7405     |  15.6 | 94.75
Other   |            | 0.01759    |            |       |  1.00

Nlocal:              8 ave          80 max           0 min
Histogram: 9 0 0 0 0 0 0 0 0 1
Nghost:              0 ave           0 max           0 min
Histogram: 10 0 0 0 0 0 0 0 0 0
Neighs:          300.3 ave        3003 max           0 min
Histogram: 9 0 0 0 0 0 0 0 0 1
FullNghs:            0 ave           0 max           0 min
Histogram: 10 0 0 0 0 0 0 0 0 0

Total # of neighbors = 3003
Ave neighs/atom = 37.5375
Ave special neighs/atom = 5.85
Neighbor list builds = 26
Dangerous builds = 0
Setting atom values ...
  1 settings made for type
Setting atom values ...
  1 settings made for type
Setting atom values ...
  1 settings made for type
Setting atom values ...
  1 settings made for type
Setting atom values ...
  1 settings made for type
Setting atom values ...
  1 settings made for type
Setting atom values ...
  1 settings made for type
Setting atom values ...
  1 settings made for type
Setting atom values ...
  1 settings made for type
Setting atom values ...
  1 settings made for type
Setting atom values ...
  1 settings made for type
Setting atom values ...
  1 settings made for type
Setting atom values ...
  1 settings made for type
Setting atom values ...
  1 settings made for type
Setting atom values ...
  1 settings made for type
Setting atom values ...
  1 settings made for type
Setting atom values ...
  1 settings made for type
Setting atom values ...
  1 settings made for type
Setting atom values ...
  1 settings made for type
Setting atom values ...
  1 settings made for type
Setting atom values ...
  1 settings made for type
Setting atom values ...
  1 settings made for type
Setting atom values ...
  1 settings made for type
Setting atom values ...
  1 settings made for type
Setting atom values ...
  1 settings made for type
Setting atom values ...
  1 settings made for type
Setting atom values ...
  1 settings made for type
Setting atom values ...
  1 settings made for type
Setting atom values ...
  1 settings made for type
Setting atom values ...
  1 settings made for type
Setting atom values ...
  1 settings made for type
Setting atom values ...
  1 settings made for type
Setting atom values ...
  1 settings made for type
Setting atom values ...
  1 settings made for type
Setting atom values ...
  1 settings made for type
Setting atom values ...
  1 settings made for type
Setting atom values ...
  1 settings made for type
Setting atom values ...
  1 settings made for type
Setting atom values ...
  1 settings made for type
Setting atom values ...
  1 settings made for type
Generated 0 of 3 mixed pair_coeff terms from geometric mixing rule
Setting up Verlet run ...
  Unit style    : lj
  Current step  : 37000000
  Time step     : 0.001
Per MPI rank memory allocation (min/avg/max) = 9.913 | 10.79 | 12.5 Mbytes
---
keywords: ['Step', 'Temp', 'c_R2[0]', 'f_4[1]', 'f_4[2]', 'f_4[3]', 'f_4[4]', ]
data:
  - [37000000, 1.23142062816125, 2.21965706108468, 1798, 2178, 1714, 1975, ]
reacted_atom_IDs: reacMU 35 52
reacted_atom_IDs: reacMU 1 20
  - [37010000, 1.02382990888144, 2.26750180136135, 1798, 2180, 1714, 1975, ]
reacted_atom_IDs: reacMU 17 36
  - [37020000, 1.02581859797605, 2.2670523542886, 1798, 2181, 1714, 1975, ]
reacted_atom_IDs: reacMU 36 15
reacted_atom_IDs: reacMU 1 18
reacted_atom_IDs: reacMU 15 34
  - [37030000, 1.06820324559398, 2.20039698347394, 1798, 2184, 1714, 1975, ]
reacted_atom_IDs: reacUA 45 4
  - [37040000, 1.05530288962892, 2.26054354605986, 1798, 2184, 1715, 1975, ]
reacted_atom_IDs: reacUM 40 58
reacted_atom_IDs: reacMU 66 29
reacted_atom_IDs: reacAU 76 39
  - [37050000, 0.993212758151947, 2.1906270685585, 1799, 2185, 1715, 1976, ]
reacted_atom_IDs: reacMU 76 39
reacted_atom_IDs: reacMU 35 13
reacted_atom_IDs: reacAU 43 62
  - [37060000, 1.01820873578759, 2.2442868911959, 1800, 2187, 1715, 1976, ]
reacted_atom_IDs: reacAU 23 41
reacted_atom_IDs: reacAU 43 59
  - [37070000, 0.916235081943092, 2.17584758269337, 1802, 2187, 1715, 1976, ]
reacted_atom_IDs: reacAU 39 58
  - [37080000, 1.20646112304026, 2.18001629912236, 1803, 2187, 1715, 1976, ]
reacted_atom_IDs: reacUM 42 22
reacted_atom_IDs: reacMU 6 25
  - [37090000, 1.07867433998461, 2.22838790615438, 1803, 2188, 1715, 1977, ]
reacted_atom_IDs: reacMU 35 74
reacted_atom_IDs: reacUM 40 56
reacted_atom_IDs: reacAU 43 22
  - [37100000, 0.998092650030101, 2.19617034824614, 1804, 2189, 1715, 1978, ]
reacted_atom_IDs: reacUM 40 58
  - [37110000, 1.16096032200487, 2.20513544446714, 1804, 2189, 1715, 1979, ]
reacted_atom_IDs: reacUM 58 22
  - [37120000, 0.96643009680136, 2.22911252329003, 1804, 2189, 1715, 1980, ]
reacted_atom_IDs: reacUA 40 20
reacted_atom_IDs: reacMU 76 19
reacted_atom_IDs: reacMU 1 73
reacted_atom_IDs: reacMU 75 51
  - [37130000, 0.924886986037899, 2.24094187606585, 1804, 2192, 1716, 1980, ]
reacted_atom_IDs: reacMU 53 9
  - [37140000, 0.943375848327319, 2.26888510256528, 1804, 2193, 1716, 1980, ]
reacted_atom_IDs: reacMU 43 2
  - [37150000, 1.024078926249, 2.26255371363576, 1804, 2194, 1716, 1980, ]
reacted_atom_IDs: reacAU 23 45
reacted_atom_IDs: reacMU 17 72
  - [37160000, 1.19377061676417, 2.18710642716667, 1805, 2195, 1716, 1980, ]
  - [37170000, 0.945773429140845, 2.19978038376082, 1805, 2195, 1716, 1980, ]
reacted_atom_IDs: reacMU 51 77
reacted_atom_IDs: reacUM 40 20
reacted_atom_IDs: reacMU 75 3
reacted_atom_IDs: reacAU 76 22
reacted_atom_IDs: reacUM 42 21
  - [37180000, 1.17056970637709, 2.19537925104833, 1806, 2197, 1716, 1982, ]
  - [37190000, 1.26414629325564, 2.22110322260292, 1806, 2197, 1716, 1982, ]
reacted_atom_IDs: reacUM 57 79
reacted_atom_IDs: reacMU 50 67
reacted_atom_IDs: reacAU 9 79
  - [37200000, 0.993451503572165, 2.25304141739551, 1807, 2198, 1716, 1983, ]
reacted_atom_IDs: reacMU 9 79
reacted_atom_IDs: reacUM 56 12
  - [37210000, 0.992548783985187, 2.23859146585943, 1807, 2199, 1716, 1984, ]
reacted_atom_IDs: reacMU 25 61
reacted_atom_IDs: reacMU 47 4
  - [37220000, 0.854332369801835, 2.25410546644605, 1807, 2201, 1716, 1984, ]
  - [37230000, 1.0769084715235, 2.2318036470112, 1807, 2201, 1716, 1984, ]
reacted_atom_IDs: reacUM 21 41
reacted_atom_IDs: reacAU 39 57
reacted_atom_IDs: reacUM 41 59
reacted_atom_IDs: reacUA 40 55
  - [37240000, 1.04792602828267, 2.18076459129774, 1808, 2201, 1717, 1986, ]
reacted_atom_IDs: reacMU 67 8
reacted_atom_IDs: reacMU 77 57
  - [37250000, 1.04798966279687, 2.29489112401209, 1808, 2203, 1717, 1986, ]
reacted_atom_IDs: reacAU 39 56
reacted_atom_IDs: reacMU 8 49
  - [37260000, 0.804505656878756, 2.22299747223194, 1809, 2204, 1717, 1986, ]
reacted_atom_IDs: reacMU 17 56
reacted_atom_IDs: reacMU 9 27
  - [37270000, 0.992599036153473, 2.18154619376923, 1809, 2206, 1717, 1986, ]
reacted_atom_IDs: reacMU 52 33
reacted_atom_IDs: reacAU 39 21
  - [37280000, 1.03431255857264, 2.15476853073494, 1810, 2207, 1717, 1986, ]
reacted_atom_IDs: reacMU 27 65
reacted_atom_IDs: reacMU 25 63
reacted_atom_IDs: reacUA 59 79
reacted_atom_IDs: reacUM 59 24
reacted_atom_IDs: reacMU 39 21
  - [37290000, 0.965847590682758, 2.17381076399521, 1810, 2210, 1718, 1987, ]
  - [37300000, 1.05654420371164, 2.28162060451608, 1810, 2210, 1718, 1987, ]
reacted_atom_IDs: reacAU 23 59
reacted_atom_IDs: reacUM 12 54
reacted_atom_IDs: reacUA 58 39
  - [37310000, 0.987596397399989, 2.25220153171495, 1811, 2210, 1719, 1988, ]
reacted_atom_IDs: reacMU 48 64
reacted_atom_IDs: reacUA 41 21
reacted_atom_IDs: reacUA 24 63
reacted_atom_IDs: reacAU 11 54
reacted_atom_IDs: reacMU 51 7
reacted_atom_IDs: reacAU 52 12
  - [37320000, 1.06866737078959, 2.24234016480814, 1813, 2212, 1721, 1988, ]
reacted_atom_IDs: reacMU 13 54
reacted_atom_IDs: reacMU 78 59
reacted_atom_IDs: reacAU 43 20
reacted_atom_IDs: reacAU 2 42
  - [37330000, 0.981841012814328, 2.32025657544436, 1815, 2214, 1721, 1988, ]
reacted_atom_IDs: reacUA 41 59
reacted_atom_IDs: reacAU 74 41
reacted_atom_IDs: reacMU 25 79
reacted_atom_IDs: reacUM 40 20
reacted_atom_IDs: reacMU 4 45
  - [37340000, 0.801588780234115, 2.2298014572641, 1816, 2216, 1722, 1989, ]
reacted_atom_IDs: reacUA 20 3
reacted_atom_IDs: reacMU 8 28
  - [37350000, 1.13909124790528, 2.22451294577605, 1816, 2217, 1723, 1989, ]
reacted_atom_IDs: reacAU 79 58
  - [37360000, 1.04958948173852, 2.21752592382939, 1817, 2217, 1723, 1989, ]
reacted_atom_IDs: reacUA 40 57
reacted_atom_IDs: reacUM 24 63
reacted_atom_IDs: reacUM 40 59
reacted_atom_IDs: reacMU 56 80
  - [37370000, 1.16478203311772, 2.22935950985913, 1817, 2218, 1724, 1991, ]
reacted_atom_IDs: reacMU 49 5
reacted_atom_IDs: reacMU 50 31
  - [37380000, 0.992713759512303, 2.24345624366653, 1817, 2220, 1724, 1991, ]
reacted_atom_IDs: reacUA 24 61
reacted_atom_IDs: reacAU 19 40
  - [37390000, 0.969935531726935, 2.24131464474554, 1818, 2220, 1725, 1991, ]
  - [37400000, 1.01627638399032, 2.17902107893149, 1818, 2220, 1725, 1991, ]
reacted_atom_IDs: reacMU 75 21
reacted_atom_IDs: reacAU 74 20
reacted_atom_IDs: reacMU 76 39
  - [37410000, 0.898717812854647, 2.17855404879322, 1819, 2222, 1725, 1991, ]
reacted_atom_IDs: reacAU 43 24
  - [37420000, 0.93358150616114, 2.25873859824992, 1820, 2222, 1725, 1991, ]
reacted_atom_IDs: reacMU 31 12
  - [37430000, 0.914251933861309, 2.22480300195395, 1820, 2223, 1725, 1991, ]
reacted_atom_IDs: reacMU 25 61
  - [37440000, 1.031393454516, 2.1711752358434, 1820, 2224, 1725, 1991, ]
reacted_atom_IDs: reacMU 78 60
  - [37450000, 0.870038206370107, 2.24136911488543, 1820, 2225, 1725, 1991, ]
reacted_atom_IDs: reacMU 77 55
reacted_atom_IDs: reacUA 63 25
  - [37460000, 1.06966434310429, 2.23625218420219, 1820, 2226, 1726, 1991, ]
reacted_atom_IDs: reacMU 77 25
  - [37470000, 1.15550297519669, 2.24517892805315, 1820, 2227, 1726, 1991, ]
reacted_atom_IDs: reacUA 63 45
  - [37480000, 1.02991071047763, 2.21109435938068, 1820, 2227, 1727, 1991, ]
reacted_atom_IDs: reacAU 25 63
  - [37490000, 0.971441510338194, 2.18994389548377, 1821, 2227, 1727, 1991, ]
reacted_atom_IDs: reacAU 78 59
reacted_atom_IDs: reacMU 2 45
  - [37500000, 0.944116006959599, 2.19097376125568, 1822, 2228, 1727, 1991, ]
reacted_atom_IDs: reacMU 52 32
reacted_atom_IDs: reacMU 47 3
  - [37510000, 0.980355402150874, 2.29680507306687, 1822, 2230, 1727, 1991, ]
  - [37520000, 0.930080166320354, 2.23358518993696, 1822, 2230, 1727, 1991, ]
reacted_atom_IDs: reacMU 60 24
  - [37530000, 1.05440544934519, 2.18359013949207, 1822, 2231, 1727, 1991, ]
  - [37540000, 1.06263500286189, 2.1714231534595, 1822, 2231, 1727, 1991, ]
reacted_atom_IDs: reacMU 76 57
reacted_atom_IDs: reacMU 24 62
reacted_atom_IDs: reacMU 21 41
  - [37550000, 1.03951652162332, 2.25479547483357, 1822, 2234, 1727, 1991, ]
reacted_atom_IDs: reacMU 61 26
  - [37560000, 0.967203481750089, 2.22067979768319, 1822, 2235, 1727, 1991, ]
  - [37570000, 1.06731828611366, 2.18419335184413, 1822, 2235, 1727, 1991, ]
  - [37580000, 0.9875331046035, 2.23009403350422, 1822, 2235, 1727, 1991, ]
  - [37590000, 1.12020260442311, 2.18562910969965, 1822, 2235, 1727, 1991, ]
  - [37600000, 1.09467797296803, 2.21481405534102, 1822, 2235, 1727, 1991, ]
  - [37610000, 1.03570275579607, 2.26482944175868, 1822, 2235, 1727, 1991, ]
reacted_atom_IDs: reacMU 24 63
  - [37620000, 0.916786188137762, 2.20223902577494, 1822, 2236, 1727, 1991, ]
reacted_atom_IDs: reacMU 4 22
  - [37630000, 0.985978378872084, 2.19286094655113, 1822, 2237, 1727, 1991, ]
  - [37640000, 1.00935908969126, 2.23584077787327, 1822, 2237, 1727, 1991, ]
  - [37650000, 0.946652556581023, 2.17691082091393, 1822, 2237, 1727, 1991, ]
  - [37660000, 1.01145420762487, 2.2574855521204, 1822, 2237, 1727, 1991, ]
reacted_atom_IDs: reacMU 22 59
  - [37670000, 1.00581677993539, 2.25401328724375, 1822, 2238, 1727, 1991, ]
reacted_atom_IDs: reacMU 22 42
  - [37680000, 1.04518505574356, 2.29812297053049, 1822, 2239, 1727, 1991, ]
  - [37690000, 0.939744930800201, 2.1819423313132, 1822, 2239, 1727, 1991, ]
  - [37700000, 1.02160443364119, 2.2521382300845, 1822, 2239, 1727, 1991, ]
reacted_atom_IDs: reacMU 22 40
  - [37710000, 1.06133196607004, 2.23368474744123, 1822, 2240, 1727, 1991, ]
  - [37720000, 1.15562281759078, 2.2341067433892, 1822, 2240, 1727, 1991, ]
  - [37730000, 0.894813723273367, 2.29566633706406, 1822, 2240, 1727, 1991, ]
  - [37740000, 0.775435604704239, 2.20043733422357, 1822, 2240, 1727, 1991, ]
  - [37750000, 0.947566608503635, 2.20826452747946, 1822, 2240, 1727, 1991, ]
  - [37760000, 1.10396536370089, 2.23268893773595, 1822, 2240, 1727, 1991, ]
  - [37770000, 0.923359650728334, 2.17802176698783, 1822, 2240, 1727, 1991, ]
  - [37780000, 1.00891621880059, 2.22712300339537, 1822, 2240, 1727, 1991, ]
  - [37790000, 1.02555034954727, 2.16254861300148, 1822, 2240, 1727, 1991, ]
  - [37800000, 1.04087230295599, 2.1974380902, 1822, 2240, 1727, 1991, ]
  - [37810000, 1.00709667480027, 2.24086530754099, 1822, 2240, 1727, 1991, ]
  - [37820000, 1.00385976869846, 2.19977325242469, 1822, 2240, 1727, 1991, ]
  - [37830000, 0.877211096032375, 2.28407353940505, 1822, 2240, 1727, 1991, ]
reacted_atom_IDs: reacMU 78 58
  - [37840000, 0.94513851658567, 2.18083981458142, 1822, 2241, 1727, 1991, ]
  - [37850000, 1.02918359744118, 2.22720491185828, 1822, 2241, 1727, 1991, ]
  - [37860000, 0.958070555087727, 2.22057601571829, 1822, 2241, 1727, 1991, ]
  - [37870000, 1.05854683146319, 2.18381294178767, 1822, 2241, 1727, 1991, ]
  - [37880000, 1.09307639436284, 2.27150245551824, 1822, 2241, 1727, 1991, ]
  - [37890000, 0.950298433063029, 2.20943648455808, 1822, 2241, 1727, 1991, ]
  - [37900000, 1.13460235388366, 2.20056867937684, 1822, 2241, 1727, 1991, ]
  - [37910000, 1.08731926284121, 2.24974664193077, 1822, 2241, 1727, 1991, ]
  - [37920000, 1.20419968614981, 2.23336777868446, 1822, 2241, 1727, 1991, ]
  - [37930000, 0.999172089385542, 2.21918210604317, 1822, 2241, 1727, 1991, ]
  - [37940000, 1.05741275640099, 2.25382500402763, 1822, 2241, 1727, 1991, ]
  - [37950000, 1.09789928479624, 2.27621161291767, 1822, 2241, 1727, 1991, ]
  - [37960000, 1.0397499415628, 2.26749529559537, 1822, 2241, 1727, 1991, ]
  - [37970000, 1.01482477927574, 2.23022362079225, 1822, 2241, 1727, 1991, ]
  - [37980000, 1.10890059729273, 2.20722581518446, 1822, 2241, 1727, 1991, ]
  - [37990000, 1.09181447934498, 2.20966805653475, 1822, 2241, 1727, 1991, ]
  - [38000000, 1.11730740940039, 2.28711800773474, 1822, 2241, 1727, 1991, ]
reacted_atom_IDs: reacMU 74 20
  - [38010000, 0.949588203732335, 2.19606294127827, 1822, 2242, 1727, 1991, ]
  - [38020000, 1.03926109371815, 2.19414127294798, 1822, 2242, 1727, 1991, ]
