# Initialisation file of the particles

10000  atoms
0  bonds
0  angles
0  dihedrals

1  atom types
0  bond types
0  angle types
0  dihedral types

0.0000   200.0000 xlo xhi 
0.0000   200.0000 ylo yhi 
0.0000   200.0000 zlo zhi

Atom Type Labels

1    HP

Masses

1    1.00 

Atoms

  1  2  HP  53.11353020191708  104.10591738944584  54.8615070725742
  2  3  HP  74.7526849347076  106.72707225935446  120.22429871677511
  3  4  HP  56.44116074813855  80.08253862541788  96.88564998444076
  4  5  HP  109.23641344682162  120.59353748730021  117.09809619946441
  5  6  HP  122.99186712825352  86.18496044151682  105.4199643633769
  6  7  HP  80.3086547711255  72.72716776416688  128.53922503521216
  7  8  HP  63.90578691659384  68.947851401274  113.17893785142363
  8  9  HP  106.21298436948462  137.77385435756088  60.73932329281128
  9  10  HP  88.45377584067998  51.27116944966069  88.17708939546358
  10  11  HP  126.07998328892364  87.1576052114539  133.00645037218717
  11  12  HP  115.55934807093665  130.35629222551262  69.89980394360495
  12  13  HP  64.74935600520534  104.72809956037474  102.12028746763713
  13  14  HP  51.60875355477893  136.88841538944865  117.6476203750538
  14  15  HP  145.99665468167532  148.3281895991683  71.40043683592143
  15  16  HP  133.8227064491754  66.34404625128242  50.95172418696177
  16  17  HP  98.98232704187342  84.84285208299286  114.04799318943638
  17  18  HP  112.27247885331477  108.46438817768393  107.3891497086892
  18  19  HP  81.38005731486624  128.41898607850914  85.6756309522791
  19  20  HP  123.37766666526582  119.90527129532519  103.52872391410916
  20  21  HP  55.1394744221481  133.54903342227107  99.48403186345408
  21  22  HP  75.76858835743519  141.17621733478234  65.57977258518684
  22  23  HP  99.58098844664471  93.56769607650742  95.76057303512081
  23  24  HP  144.62333923582332  134.72142543090996  129.7331150357566
  24  25  HP  135.7834705340028  125.76499254445199  129.49751075231177
  25  26  HP  135.5623111205995  63.39044893704008  99.69635902884278
  26  27  HP  97.51018495561593  133.31988690916882  113.89737459368502
  27  28  HP  140.02837308235047  86.00944057843903  132.63124459922977
  28  29  HP  88.47166493826711  75.1356132912266  118.28422739130724
  29  30  HP  95.48161768636012  73.49758432571221  92.7621095791333
  30  31  HP  138.1044784978372  142.99422332538728  77.65411396612232
  31  32  HP  136.0416835524475  142.54212141465985  86.52448531768005
  32  33  HP  56.44500150610865  62.09930056807498  95.47617973316474
  33  34  HP  121.99233166552007  84.30795055701645  93.25609510688543
  34  35  HP  123.04941745739755  56.70786391153231  130.63682393602704
  35  36  HP  54.93892610349419  94.60294244115468  82.5005135912348
  36  37  HP  128.62990720151436  99.3578736754185  95.79037960161838
  37  38  HP  98.5140142340247  107.35164199709477  124.47960055791404
  38  39  HP  137.14335604659217  84.89063311177487  100.54298476836894
  39  40  HP  122.6643436637499  73.70128417134211  127.11325606529596
  40  41  HP  122.05308385561449  60.66981686206757  97.53955620570008
  41  42  HP  84.34135318837124  109.08141578804742  84.35787254998667
  42  43  HP  68.12788469806104  88.43204569904633  88.52689605806789
  43  44  HP  140.4080480073619  132.38967934919964  92.76435351946276
  44  45  HP  86.1903527290608  96.61080704213303  119.95359031427817
  45  46  HP  83.94293834426983  67.42976555460939  69.39026737038598
  46  47  HP  61.13833657366609  99.64506349878383  119.0061945441021
  47  48  HP  105.73971942603524  67.26774275163369  122.54495962030059
  48  49  HP  110.78524662745868  142.48947947571406  107.39332219853732
  49  50  HP  103.5647206584623  100.187545049757  134.60009630429087
  50  51  HP  79.78904001103959  53.40008030118035  133.98339828167713
  51  52  HP  133.7546860756956  139.03855789887297  72.16371673151082
  52  53  HP  104.95279630931365  124.66270900111233  84.35127200536552
  53  54  HP  111.15398851097045  54.77420378204148  117.89545065173174
  54  55  HP  125.64178069801598  80.79490780761357  137.60078180695587
  55  56  HP  83.46707466204865  66.62326319693095  76.51222385429814
  56  57  HP  79.19470609552795  93.88760961294048  98.30110813667905
  57  58  HP  51.303876651056626  90.60690330581258  89.7462375646705
  58  59  HP  93.73116973676304  110.63493517167032  88.70019090733368
  59  60  HP  83.59049211040143  75.09963442140489  144.41272795872192
  60  61  HP  130.8486496825373  66.18766913913731  87.74954273812234
  61  62  HP  99.28269030134705  97.24091057908068  54.363376814305084
  62  63  HP  85.64533866005456  55.101987024520625  106.49174574912287
  63  64  HP  51.95559405289559  118.4800179349547  144.92730717699902
  64  65  HP  100.21515656045153  72.81439944292791  107.93455242612782
  65  66  HP  126.66385568998462  85.26594894224499  96.65053120001284
  66  67  HP  142.55697156498786  114.52367986149179  70.21482485600183
  67  68  HP  127.46991104423631  115.50497323206477  99.54348219802608
  68  69  HP  99.89742735858158  64.81627933320783  62.78522012762701
  69  70  HP  126.74014896525777  68.29425224419563  71.97575304207719
  70  71  HP  110.25548178184823  63.93994628563813  125.06157886569366
  71  72  HP  76.4048454178743  106.28640298704468  56.347179073578445
  72  73  HP  52.006379903448476  61.95626349180328  144.259962544463
  73  74  HP  66.74289198711217  83.44599619965976  86.73443722660951
  74  75  HP  117.84685654833977  51.77654807530363  90.66556420868955
  75  76  HP  81.43740583968244  85.73774036662378  101.27030724895576
  76  77  HP  132.28495662492193  84.9540578925786  91.79550582231613
  77  78  HP  109.29345153516884  101.44317243307086  92.00484955159092
  78  79  HP  147.12082024347603  125.05996710533321  108.59194216814168
  79  80  HP  82.98361275551002  132.8898354159064  114.38978091622775
  80  81  HP  72.63526273669791  101.67613363824925  146.3840379134718
  81  82  HP  121.8868815387616  72.47092210456385  125.03871689464471
  82  83  HP  51.2386000730868  149.34163591252747  118.49226673994954
  83  84  HP  141.59832479441997  129.3389767251353  145.3316928097863
  84  85  HP  60.95118760245599  86.27997922257148  72.5231693924843
  85  86  HP  92.77440893950745  97.10243320306235  54.91615422254385
  86  87  HP  68.85464970562188  139.52963711443977  129.26779710171306
  87  88  HP  96.1743232636135  118.79963167735184  139.38800488637395
  88  89  HP  51.54152356402272  120.63280778935747  117.92569182277461
  89  90  HP  82.57796661452008  83.9798368503273  101.85025198640744
  90  91  HP  119.27715542064686  85.78778707028127  64.88313220532477
  91  92  HP  142.68926424091188  97.36533515197335  87.12813978478448
  92  93  HP  145.5983919380658  105.77191014954852  65.39726829063031
  93  94  HP  100.51907770774459  138.11289605418693  83.29176564764663
  94  95  HP  111.9273350360618  53.55059198946039  92.17790670040407
  95  96  HP  139.1944956029679  141.38484952423602  142.35293022686818
  96  97  HP  107.38660302372713  149.70048419173656  62.06070622326544
  97  98  HP  90.54288070470267  127.42689059210672  129.43271256971997
  98  99  HP  145.55882105705587  120.21201927034446  62.363645929033474
  99  100  HP  90.56703414011595  118.73458707771493  72.59470551122998
  100  101  HP  89.48803940485789  60.75969568387406  142.90956427822016
  101  102  HP  130.21168341890373  83.3957796338876  120.7825237896907
  102  103  HP  106.11954284603144  118.98686958222166  100.52814981080076
  103  104  HP  104.15958644361959  103.62105653504229  64.62506255270169
  104  105  HP  91.28915454612013  136.53567590288  93.428532958186
  105  106  HP  102.099470997493  96.11476006187729  66.41231105855881
  106  107  HP  59.508878887925555  79.98677176784835  104.76536499935102
  107  108  HP  104.79268919275161  113.04939144787002  118.11198382974246
  108  109  HP  123.5987049912199  104.46465302606808  61.33327777250951
  109  110  HP  65.30139424566309  146.2571788800194  89.1586050511834
  110  111  HP  60.159784401783476  80.78495756739362  140.46244029684027
  111  112  HP  145.11679967943837  137.89944632689128  94.04231551927745
  112  113  HP  143.39457938119187  62.88423912792259  138.85103204566036
  113  114  HP  93.31730979552799  85.56814336731418  102.68639323053495
  114  115  HP  65.1954242756303  69.17285186878463  71.30308666641166
  115  116  HP  127.02618593833098  136.4505888324178  61.24476096741876
  116  117  HP  67.08114279273511  134.9507836716275  79.31182243956611
  117  118  HP  128.14882415902102  100.0618819130247  71.89859646927421
  118  119  HP  131.77497658415723  56.26901898501233  60.09030954914573
  119  120  HP  143.02462563678642  79.24577377209107  88.29768904217111
  120  121  HP  144.278971259669  73.2398524124745  119.78903958226745
  121  122  HP  120.8025571126034  92.83918756432638  133.13545386555623
  122  123  HP  84.83275321931468  111.04576797094141  124.89640961662968
  123  124  HP  120.18584448693966  146.54741230584506  54.72146905739452
  124  125  HP  87.20651786090608  55.89263658417535  63.65248043981083
  125  126  HP  122.32666239619905  53.13377402058189  125.62264616517653
  126  127  HP  54.265983439837825  56.93379971865347  101.59615828015895
  127  128  HP  95.4297272064159  60.33521855910232  137.03334558649624
  128  129  HP  77.72778418789683  114.03344156127574  143.61514696752795
  129  130  HP  136.43652574472185  74.99355435767532  110.5723430509866
  130  131  HP  114.39994534336958  130.48812457006792  81.14922973272643
  131  132  HP  81.03129255508975  80.86747550507178  97.2632936718123
  132  133  HP  125.63622193737936  75.5457988271439  135.5105889098019
  133  134  HP  65.42379352886158  119.89706459857095  72.74222430081903
  134  135  HP  93.42781581147196  147.88215733623292  105.21113464470822
  135  136  HP  62.6157713158736  145.7515161667014  125.09014455656799
  136  137  HP  132.2821041352162  144.87783320765107  121.23866275121249
  137  138  HP  135.20036715380513  106.85265512525024  98.47734424539411
  138  139  HP  86.84734237464536  110.96031864980515  102.70459293821555
  139  140  HP  112.6295872754836  100.20554692368458  57.13163443553459
  140  141  HP  119.98264639551489  118.69579499452533  92.00668314241076
  141  142  HP  102.60186812691782  125.74452456806  85.95190568607619
  142  143  HP  125.99504454187583  51.142879837516105  139.5616438837685
  143  144  HP  57.60184650442418  132.96920513298159  59.14284856080931
  144  145  HP  104.4712234046831  119.24570351582038  107.53317293268572
  145  146  HP  103.18105950210234  121.88615633677084  70.49584655384245
  146  147  HP  60.2959945965711  101.90812980039256  149.4629485983885
  147  148  HP  81.54510369160543  69.82934859975376  137.99061725037976
  148  149  HP  52.93080057252082  124.39046975028788  63.301432826478866
  149  150  HP  100.21994100073272  50.999975972196054  105.46342160537898
  150  151  HP  121.12376638614538  137.32476595695624  112.95482891576225
  151  152  HP  141.339433854977  89.53708053176058  84.45385001863792
  152  153  HP  59.777697108520584  86.09783451140464  91.88301595285199
  153  154  HP  104.29234970204101  100.21324222196102  114.21183630697259
  154  155  HP  59.551046111611385  63.97355879388251  103.58862372125616
  155  156  HP  67.784191309201  134.45761129022452  63.472674591038526
  156  157  HP  140.78393606021262  103.1083141353414  149.50134884186178
  157  158  HP  143.86062010086567  70.4555250052719  132.4508444990115
  158  159  HP  120.1817239303082  143.57051005303157  75.71151631047243
  159  160  HP  141.1639379450995  143.43583053070614  119.52975117502201
  160  161  HP  147.75511837347497  96.50143254585578  122.84674421048696
  161  162  HP  62.20256547994237  50.23824497013697  111.49197420729499
  162  163  HP  82.61511355248084  84.63490019814661  113.45826287704385
  163  164  HP  100.77032236619971  138.04125954487108  75.76943763528125
  164  165  HP  118.77113100494483  122.17560074623044  83.20390529151055
  165  166  HP  139.92624232641757  68.71525617048464  106.90241191705863
  166  167  HP  130.97173633287585  85.48389285185068  119.69453782286921
  167  168  HP  72.82089732204665  89.83913257940432  113.79854772044658
  168  169  HP  90.91758466888722  113.07787262633734  58.46454621031381
  169  170  HP  121.8979844405406  81.28128741761563  70.39026794333424
  170  171  HP  105.33040528598013  126.0923463101798  125.60496623581294
  171  172  HP  58.28570544678513  142.23602569268473  116.87694181738001
  172  173  HP  117.42793606173603  89.26132583976568  54.39955960618483
  173  174  HP  137.2349065270812  78.24463415595827  83.47588768347235
  174  175  HP  122.43487355689352  79.06283749918553  118.93621650723111
  175  176  HP  140.77790037888786  83.10440295853778  64.78277034863592
  176  177  HP  88.619445586181  128.70808795610054  148.13258673075325
  177  178  HP  117.44010528296673  103.66739212428111  147.97895584656465
  178  179  HP  68.73544357603407  93.74494379830395  135.00000426570523
  179  180  HP  112.50846732453874  147.05731506249964  104.78043128037933
  180  181  HP  121.11948752392574  105.92784646942917  119.28522423219358
  181  182  HP  100.89708598747715  133.92577813752024  110.64047962803066
  182  183  HP  61.31873256308201  60.44337121985629  93.48330563054228
  183  184  HP  123.51993536075848  93.92788416575303  82.61936720330745
  184  185  HP  138.0130784278865  105.67454309081889  149.42028858623678
  185  186  HP  115.933826395911  108.07792631798523  56.02902135121575
  186  187  HP  62.57540065248  84.82664926675223  104.01119516275277
  187  188  HP  84.21024204152307  84.26606163356465  79.33523632157569
  188  189  HP  147.0580497094449  89.42092190745248  80.73952579222549
  189  190  HP  84.10810566228315  136.68497572644634  69.06804812682346
  190  191  HP  115.57774669142468  73.40993222436971  79.71188171173429
  191  192  HP  82.59439074030688  70.57203290305594  88.78635193112069
  192  193  HP  120.41201942897591  68.69924775162858  109.27947822602465
  193  194  HP  133.04031045510052  94.94412106769809  139.31338806085483
  194  195  HP  77.89737946918622  119.59876255836124  102.71307650718084
  195  196  HP  108.05066910710201  106.7517257055404  60.34536332522581
  196  197  HP  111.10876552777532  58.560301892616096  115.50591620294952
  197  198  HP  110.27339804928718  56.894287355488245  84.89343738667876
  198  199  HP  66.10692336294893  138.5687099046869  110.91037762435542
  199  200  HP  141.67082697365777  89.01103727621125  68.6720672785214
  200  201  HP  98.97941562533637  126.42955544954853  103.2719341958259
  201  202  HP  88.14024771839914  56.0493205813082  86.76548321127842
  202  203  HP  138.074227034406  100.79747542900112  56.15946509809137
  203  204  HP  81.33602141390708  106.81731491667566  147.9793963968755
  204  205  HP  142.4358908078879  54.2623704031119  50.289239179165214
  205  206  HP  60.53236528109255  117.12635101329795  130.64768108975284
  206  207  HP  110.51084846605951  50.0741805371673  58.69753884352088
  207  208  HP  60.077478318168254  142.6974289926398  81.20237330823831
  208  209  HP  124.40429451312323  62.12166827053052  148.6954844740411
  209  210  HP  55.649382563414584  60.43444698386337  92.95223047189553
  210  211  HP  86.46716489309381  58.544272993309136  125.49763843387393
  211  212  HP  65.36543510233743  88.30277858924417  68.869896702701
  212  213  HP  76.40534667257683  139.36956113589315  126.14913442960192
  213  214  HP  53.980279423769964  89.0244664153286  131.59210107336816
  214  215  HP  50.30151728516357  87.04691956320772  108.35556911378367
  215  216  HP  144.12536783535458  118.3296529160135  61.014359550785144
  216  217  HP  95.77883493728157  138.1592655653025  140.68670830819062
  217  218  HP  84.08791559028964  106.46743576557549  98.46917987247389
  218  219  HP  125.98866969801125  148.07401743176757  134.7449133828698
  219  220  HP  142.90349249628014  66.17573124145802  125.02984312546755
  220  221  HP  74.54875520801981  130.64010721056343  60.41044645471305
  221  222  HP  56.83165249897942  131.9556013081406  144.46851065505032
  222  223  HP  146.21708057587995  62.09349251830487  134.7120112480129
  223  224  HP  85.4191471669358  98.8213337830572  119.85020539295643
  224  225  HP  78.83429595961081  109.91364973374262  53.12378291145398
  225  226  HP  56.64228939192575  141.5305983250103  143.09026282153206
  226  227  HP  140.78026079639307  104.76817979003863  134.9659144368808
  227  228  HP  62.91134523168391  59.182846431366485  136.52474413764824
  228  229  HP  146.856814527204  113.1735574019844  58.86046139478289
  229  230  HP  112.88050067771695  142.74344643413235  50.123272509343565
  230  231  HP  148.2069551189241  105.5449263133581  114.653986390645
  231  232  HP  124.68485603137356  125.47060783667824  124.4871543323216
  232  233  HP  117.72537928608918  122.98834039140668  71.29380952638826
  233  234  HP  100.3969791404223  96.91561268215649  138.6532219307878
  234  235  HP  111.33495153412687  94.09975050326469  137.38683053192995
  235  236  HP  95.72669900161054  122.17805706316341  93.59977759688135
  236  237  HP  136.06563316234246  112.45451137571158  110.3578178189818
  237  238  HP  50.067088729226825  90.00307195640494  96.43774074833976
  238  239  HP  81.00508935869148  107.51004620627806  64.746033267684
  239  240  HP  116.81442146334776  102.24277136339148  66.39214774802794
  240  241  HP  135.75146972247785  147.0928122643681  140.14464481909616
  241  242  HP  56.49134658062012  145.0677234569718  70.32264530470748
  242  243  HP  69.54140290797184  81.1808436270835  80.43486227889358
  243  244  HP  60.10264507697356  86.24705494122563  107.48928967689005
  244  245  HP  74.10320439907446  103.17753413570401  101.38185418513615
  245  246  HP  114.20725867810441  108.89498500205303  57.93794832974677
  246  247  HP  90.00124863135673  87.24778205014542  80.79154113665278
  247  248  HP  132.987791751842  93.73394775719976  112.40801742294587
  248  249  HP  121.06479896058634  82.03197715993784  93.25261562770517
  249  250  HP  70.33920573214564  96.71349105537846  75.78280335998863
  250  251  HP  141.1473415588405  71.40315246630327  98.85367408887782
  251  252  HP  75.47173016584267  147.35279441024016  52.71624244114216
  252  253  HP  141.56471225234714  99.62840389493579  66.08217977795312
  253  254  HP  64.13263933282252  65.4249949881397  129.14046449331784
  254  255  HP  146.52798577264844  83.28639916581963  90.69944510234816
  255  256  HP  143.8924551986354  84.88582649763337  131.5377489114524
  256  257  HP  105.69021937516999  113.66621448995073  115.8965813058718
  257  258  HP  135.21368946418463  123.77083100011389  72.92550580771925
  258  259  HP  59.61598876772801  138.49075257038396  120.99885171187205
  259  260  HP  80.9475254260056  148.75048421011144  52.43358578298211
  260  261  HP  117.11495803858371  102.75897295718133  84.21928676507711
  261  262  HP  80.66215100348525  126.0385827375284  148.5075877826229
  262  263  HP  122.61720400852421  136.79813777830614  110.12969229800922
  263  264  HP  116.39738607460983  97.21290771227453  60.0053024319908
  264  265  HP  99.17965007540909  117.68526607863396  149.67890199789568
  265  266  HP  62.20393462478088  112.08503196826862  98.89811211494661
  266  267  HP  63.46907216052035  72.06772866808784  79.89827689093556
  267  268  HP  131.25363194525175  74.03723758376208  65.1929940260351
  268  269  HP  149.90422558722088  145.93361801252712  78.5141119301517
  269  270  HP  85.99229703925494  69.25460819254738  145.86069416420065
  270  271  HP  135.73532928710915  93.50841602671528  58.15288897834233
  271  272  HP  115.13188742321739  58.38713480975119  52.79100281950255
  272  273  HP  138.0685322964198  76.10380503457867  62.679157521993304
  273  274  HP  132.13149995618463  139.77552606420164  117.73706385858321
  274  275  HP  143.91930846842683  130.49564050323832  122.37944307714153
  275  276  HP  146.1573315860128  66.39294843307033  67.4118286170597
  276  277  HP  147.08195589525997  85.2876601275947  73.86513101348822
  277  278  HP  98.44534566618307  139.8255296167423  75.97376605209632
  278  279  HP  81.4307432431587  144.22432678851158  70.29329835679668
  279  280  HP  79.84517424637342  103.93775352122677  76.98533382865747
  280  281  HP  140.82512403873667  83.84029895629348  126.24767264183615
  281  282  HP  142.6680096300887  98.91811860407893  120.53062663503256
  282  283  HP  141.71276702442339  138.8566515502871  122.32539865612917
  283  284  HP  76.94949341005932  77.2734592129078  137.84846695995145
  284  285  HP  52.28352114618342  105.85190906393433  147.69618511718596
  285  286  HP  119.33685891377081  58.19421551697995  143.5077331063017
  286  287  HP  95.16577749603417  92.96603854571515  93.55571844232816
  287  288  HP  63.87425633817718  124.6111268921005  89.50855047988162
  288  289  HP  70.5728292961202  94.14470879430424  110.36427848964664
  289  290  HP  148.68826631154903  113.04151928724549  116.74739485660422
  290  291  HP  120.94427384797136  132.8567125396055  68.55248599475391
  291  292  HP  71.86170455593609  100.1873513716041  145.30235838169256
  292  293  HP  111.72075415302942  81.45633951412677  143.32213225976284
  293  294  HP  55.52187032191135  70.85646487320338  147.61019647370506
  294  295  HP  76.50021591443422  53.5938261970333  148.508110402287
  295  296  HP  63.78636886107796  88.23343049939254  99.7987015996815
  296  297  HP  144.12713289709785  103.54162511657749  136.09094216431225
  297  298  HP  80.64775031561715  120.39577197638832  107.82551506355469
  298  299  HP  134.65127118035917  131.57558465864372  78.74101021577405
  299  300  HP  113.86137082984695  51.35102892722229  51.8926536401567
  300  301  HP  146.23143198642168  102.73496901851865  96.40244430211564
  301  302  HP  122.61479207032933  84.37736885783168  100.32263164062857
  302  303  HP  123.87114996488742  59.23055934273381  101.49851982318484
  303  304  HP  148.34635129883884  69.53227762789324  82.41438165862385
  304  305  HP  59.350094621227086  71.95398981906145  105.68974922000629
  305  306  HP  80.76498395639871  57.40135602845618  124.88316792413737
  306  307  HP  101.10050148970856  147.59723230665475  71.433822349619
  307  308  HP  59.46306720484414  132.72485383124055  103.9317076760191
  308  309  HP  103.98275914555316  77.4253847979592  57.28487147015711
  309  310  HP  141.2913886989756  120.3727761948406  94.21865976622831
  310  311  HP  68.36661906126575  60.10740479116629  90.54665198968469
  311  312  HP  90.82667598862163  133.8743159660499  101.46097213661173
  312  313  HP  84.78287723674029  57.86277949352407  88.54693422169248
  313  314  HP  113.16562904675978  96.12899375995411  63.96795627566891
  314  315  HP  65.31089857975368  117.503539464259  138.85355804219026
  315  316  HP  96.39802520319496  55.42405478324602  60.83956689858412
  316  317  HP  79.64880874221791  116.68694336123033  132.52705849587073
  317  318  HP  69.53152385919444  79.95003602977332  56.14348723556666
  318  319  HP  53.95047577504673  68.96406944955143  64.34997415570656
  319  320  HP  82.47592572960839  103.63589966939645  96.92476821858855
  320  321  HP  99.11910267877471  73.35388363890299  144.92201679106063
  321  322  HP  76.22175490383363  134.6342837715054  64.25469997506056
  322  323  HP  90.42917526608609  110.063919266244  52.72016056875193
  323  324  HP  76.47961725126686  70.10653494345468  63.03092532814243
  324  325  HP  82.88492956301806  122.58921763523661  76.29578291282161
  325  326  HP  73.50588154730337  101.64973257115112  58.6658022187497
  326  327  HP  60.23260592534465  139.72084140426102  146.74754203206592
  327  328  HP  112.66446225203529  77.3955956275751  60.19180852754753
  328  329  HP  109.04354975128226  54.66416779331409  105.33145056236481
  329  330  HP  71.35352333339861  120.1317404777099  104.00580367220005
  330  331  HP  137.23034535384755  141.126999479036  59.60738295642878
  331  332  HP  125.05796997112682  145.63497659190273  129.42049204327355
  332  333  HP  79.26559858896876  117.30332260587562  144.2546731428592
  333  334  HP  118.10626557144157  79.67172715668926  132.00184594429015
  334  335  HP  145.08668434510065  56.95097316918225  83.3465554072379
  335  336  HP  62.77867617184869  130.534723253231  145.23393038736748
  336  337  HP  77.36436909652588  99.25349119573352  129.9706681949384
  337  338  HP  92.69929319329566  117.67695995109034  149.00806105321146
  338  339  HP  128.30920263643375  146.23102967687433  117.11736575637802
  339  340  HP  52.98801923848695  105.76839926282264  120.20711352830813
  340  341  HP  61.43142713243558  127.47770638860992  105.91507957654102
  341  342  HP  67.15140361700065  97.4881208865349  132.88154796421702
  342  343  HP  118.03347514663572  135.56104345412925  131.47138120067558
  343  344  HP  145.86919003401155  78.80621243818945  140.96945350821224
  344  345  HP  57.722834238233034  73.83498204862177  78.77159265892703
  345  346  HP  97.10016007340914  106.67052509063198  98.12798380637787
  346  347  HP  90.77262958413974  125.72351002531096  85.59272420104892
  347  348  HP  122.67088094979981  56.26814676463796  142.75080030767893
  348  349  HP  146.4505761407687  124.8368565799129  104.33525044587589
  349  350  HP  111.6361642585271  52.72691089685253  106.79586267137645
  350  351  HP  102.02100835148437  86.12288799496305  101.61906942274351
  351  352  HP  97.58987264407419  140.54688138965977  118.36544847225419
  352  353  HP  100.53613095164724  137.48894107609829  122.66414130488008
  353  354  HP  121.34667436568407  143.00250353912065  116.555765673062
  354  355  HP  72.07909289793922  140.54072908592357  73.00797125886925
  355  356  HP  112.16115276054796  113.88411880983622  51.500930498995665
  356  357  HP  135.94560994628307  109.45620779024618  65.199810402058
  357  358  HP  87.184438109751  132.29912479842943  118.84888362766782
  358  359  HP  120.84470475156864  105.07729681277209  89.71222783810674
  359  360  HP  149.70515801802946  66.29881937119214  115.12841964970005
  360  361  HP  51.534966279955285  93.31824334282072  71.14295058708257
  361  362  HP  70.59150431271266  79.04276345508052  77.96442128099886
  362  363  HP  135.35417230974315  128.2850419547749  134.15533515109354
  363  364  HP  134.01205205391102  109.0689749933469  104.75078989528049
  364  365  HP  87.44154718287939  81.22961431541361  64.13145100628165
  365  366  HP  101.595803640465  74.49537046366191  81.7507439470856
  366  367  HP  143.39208116816397  70.231317620929  107.19516621747871
  367  368  HP  107.86975831177415  80.02913327813813  87.71826717399918
  368  369  HP  107.1213777567303  132.9638169961767  148.11769193312767
  369  370  HP  120.70772008410657  53.13783291881199  125.04330124707444
  370  371  HP  144.01645373028208  54.28300094295192  149.98831283245858
  371  372  HP  135.15840458709363  56.6533836092387  75.9032551775894
  372  373  HP  102.2737026163949  74.21877580330164  81.07003672561753
  373  374  HP  96.83642358839816  59.80880156795627  86.76686920334765
  374  375  HP  130.9189064816299  120.9832748664454  115.94745778880807
  375  376  HP  133.51998056290878  83.02124192255121  96.54836791898597
  376  377  HP  113.51677213375609  102.9512852541074  78.55483493873753
  377  378  HP  81.109134956362  62.99392650028953  139.96158372029032
  378  379  HP  69.88669097349681  109.58944879472809  139.6943653058829
  379  380  HP  124.4673833815079  148.12685354190208  81.5210327298218
  380  381  HP  93.93172605894844  143.9170940843075  89.06243710287995
  381  382  HP  88.80326287424566  62.14621486686068  60.53845118037474
  382  383  HP  66.8789241733763  53.36609814682647  69.23699776562093
  383  384  HP  95.81558661039634  101.51234773080328  128.33878098383644
  384  385  HP  84.43726868658489  122.13944108078957  146.38337274052992
  385  386  HP  110.38264711436172  96.10692527915609  137.89347320876016
  386  387  HP  83.77814088705259  78.85715670138894  103.04140326540326
  387  388  HP  80.2703852639078  58.98228993052251  110.29755275149158
  388  389  HP  63.59039683852462  53.143298942463005  133.04495100270793
  389  390  HP  64.24253995279744  66.64016915458497  135.7081743388153
  390  391  HP  126.29624456850665  93.62979259802813  68.18494421261295
  391  392  HP  106.0885324798358  92.03082879776673  140.10205117722313
  392  393  HP  108.25731754356448  115.63642012136849  85.91033996004613
  393  394  HP  129.8011856346422  52.01550074082638  137.59590302585065
  394  395  HP  117.26876940575072  100.62098966274758  128.40698989936402
  395  396  HP  121.7100465085211  64.93198390230967  116.57405228147549
  396  397  HP  144.4834251586169  109.85987070307496  82.08561866254317
  397  398  HP  130.92204895818836  83.01542766886536  57.868112499803395
  398  399  HP  101.67248486263946  59.48453081791412  114.60881341640038
  399  400  HP  89.32954393855374  102.51395337886882  117.78004394998109
  400  401  HP  80.82593043570354  111.1023320463882  56.38515737482126
  401  402  HP  127.24763568031344  108.4928079673745  121.15451569684372
  402  403  HP  103.22680167901177  113.59583766908074  88.54593813601939
  403  404  HP  140.33304914690203  69.74257147624479  53.79095976468853
  404  405  HP  52.610699339323915  119.00697840876796  75.63491080816158
  405  406  HP  70.03006204376724  120.3012439918843  115.66006583867112
  406  407  HP  117.5146838093822  115.85305892327892  128.91950782937704
  407  408  HP  103.02866771465827  60.1680877108954  103.64555628968526
  408  409  HP  140.96997247187073  83.31757067795733  120.35212306274681
  409  410  HP  76.3236521117113  123.0798480458718  131.06767445050548