# Initialisation file of the particles

2200  atoms
199  bonds
198  angles
197  dihedrals

4  atom types
1  bond types
1  angle types
1  dihedral types

0.0000   200.0000 xlo xhi 
0.0000   200.0000 ylo yhi 
0.0000   200.0000 zlo zhi

Atom Type Labels

1    A
2    U
3    M
4    HP

Bond Type Labels

1    Normal
Angle Type Labels

1    Normal

Dihedral Type Labels

1    Normal

Masses

1    1.00 
2    1.00 
3    1.00 
4    1.00 

Atoms

  1  1  U  0.0  0.0  0.0
  2  1  U  1.0  1.0  1.0
  3  1  A  2.0  2.0  2.0
  4  1  M  3.0  3.0  3.0
  5  1  A  4.0  4.0  4.0
  6  1  A  5.0  5.0  5.0
  7  1  A  6.0  6.0  6.0
  8  1  M  7.0  7.0  7.0
  9  1  M  8.0  8.0  8.0
  10  1  U  9.0  9.0  9.0
  11  1  U  10.0  10.0  10.0
  12  1  U  11.0  11.0  11.0
  13  1  M  12.0  12.0  12.0
  14  1  A  13.0  13.0  13.0
  15  1  A  14.0  14.0  14.0
  16  1  U  15.0  15.0  15.0
  17  1  U  16.0  16.0  16.0
  18  1  M  17.0  17.0  17.0
  19  1  A  18.0  18.0  18.0
  20  1  M  19.0  19.0  19.0
  21  1  U  20.0  20.0  20.0
  22  1  U  21.0  21.0  21.0
  23  1  M  22.0  22.0  22.0
  24  1  U  23.0  23.0  23.0
  25  1  A  24.0  24.0  24.0
  26  1  U  25.0  25.0  25.0
  27  1  A  26.0  26.0  26.0
  28  1  M  27.0  27.0  27.0
  29  1  M  28.0  28.0  28.0
  30  1  A  29.0  29.0  29.0
  31  1  U  30.0  30.0  30.0
  32  1  U  31.0  31.0  31.0
  33  1  M  32.0  32.0  32.0
  34  1  A  33.0  33.0  33.0
  35  1  U  34.0  34.0  34.0
  36  1  M  35.0  35.0  35.0
  37  1  A  36.0  36.0  36.0
  38  1  U  37.0  37.0  37.0
  39  1  A  38.0  38.0  38.0
  40  1  U  39.0  39.0  39.0
  41  1  U  40.0  40.0  40.0
  42  1  A  41.0  41.0  41.0
  43  1  U  42.0  42.0  42.0
  44  1  A  43.0  43.0  43.0
  45  1  A  44.0  44.0  44.0
  46  1  U  45.0  45.0  45.0
  47  1  U  46.0  46.0  46.0
  48  1  A  47.0  47.0  47.0
  49  1  U  48.0  48.0  48.0
  50  1  A  49.0  49.0  49.0
  51  1  U  50.0  50.0  50.0
  52  1  A  51.0  51.0  51.0
  53  1  A  52.0  52.0  52.0
  54  1  U  53.0  53.0  53.0
  55  1  U  54.0  54.0  54.0
  56  1  U  55.0  55.0  55.0
  57  1  U  56.0  56.0  56.0
  58  1  U  57.0  57.0  57.0
  59  1  M  58.0  58.0  58.0
  60  1  U  59.0  59.0  59.0
  61  1  U  60.0  60.0  60.0
  62  1  U  61.0  61.0  61.0
  63  1  U  62.0  62.0  62.0
  64  1  U  63.0  63.0  63.0
  65  1  M  64.0  64.0  64.0
  66  1  M  65.0  65.0  65.0
  67  1  A  66.0  66.0  66.0
  68  1  M  67.0  67.0  67.0
  69  1  M  68.0  68.0  68.0
  70  1  A  69.0  69.0  69.0
  71  1  U  70.0  70.0  70.0
  72  1  U  71.0  71.0  71.0
  73  1  U  72.0  72.0  72.0
  74  1  A  73.0  73.0  73.0
  75  1  M  74.0  74.0  74.0
  76  1  M  75.0  75.0  75.0
  77  1  M  76.0  76.0  76.0
  78  1  M  77.0  77.0  77.0
  79  1  A  78.0  78.0  78.0
  80  1  M  79.0  79.0  79.0
  81  1  A  80.0  80.0  80.0
  82  1  A  81.0  81.0  81.0
  83  1  M  82.0  82.0  82.0
  84  1  A  83.0  83.0  83.0
  85  1  A  84.0  84.0  84.0
  86  1  U  85.0  85.0  85.0
  87  1  A  86.0  86.0  86.0
  88  1  U  87.0  87.0  87.0
  89  1  A  88.0  88.0  88.0
  90  1  A  89.0  89.0  89.0
  91  1  U  90.0  90.0  90.0
  92  1  M  91.0  91.0  91.0
  93  1  M  92.0  92.0  92.0
  94  1  M  93.0  93.0  93.0
  95  1  U  94.0  94.0  94.0
  96  1  A  95.0  95.0  95.0
  97  1  M  96.0  96.0  96.0
  98  1  M  97.0  97.0  97.0
  99  1  A  98.0  98.0  98.0
  100  1  A  99.0  99.0  99.0
  101  1  U  100.0  100.0  100.0
  102  1  A  101.0  101.0  101.0
  103  1  A  102.0  102.0  102.0
  104  1  U  103.0  103.0  103.0
  105  1  A  104.0  104.0  104.0
  106  1  U  105.0  105.0  105.0
  107  1  A  106.0  106.0  106.0
  108  1  U  107.0  107.0  107.0
  109  1  A  108.0  108.0  108.0
  110  1  A  109.0  109.0  109.0
  111  1  U  110.0  110.0  110.0
  112  1  A  111.0  111.0  111.0
  113  1  A  112.0  112.0  112.0
  114  1  M  113.0  113.0  113.0
  115  1  M  114.0  114.0  114.0
  116  1  U  115.0  115.0  115.0
  117  1  M  116.0  116.0  116.0
  118  1  A  117.0  117.0  117.0
  119  1  U  118.0  118.0  118.0
  120  1  U  119.0  119.0  119.0
  121  1  A  120.0  120.0  120.0
  122  1  A  121.0  121.0  121.0
  123  1  U  122.0  122.0  122.0
  124  1  M  123.0  123.0  123.0
  125  1  M  124.0  124.0  124.0
  126  1  M  125.0  125.0  125.0
  127  1  U  126.0  126.0  126.0
  128  1  A  127.0  127.0  127.0
  129  1  A  128.0  128.0  128.0
  130  1  U  129.0  129.0  129.0
  131  1  A  130.0  130.0  130.0
  132  1  M  131.0  131.0  131.0
  133  1  M  132.0  132.0  132.0
  134  1  A  133.0  133.0  133.0
  135  1  U  134.0  134.0  134.0
  136  1  A  135.0  135.0  135.0
  137  1  U  136.0  136.0  136.0
  138  1  A  137.0  137.0  137.0
  139  1  M  138.0  138.0  138.0
  140  1  U  139.0  139.0  139.0
  141  1  U  140.0  140.0  140.0
  142  1  A  141.0  141.0  141.0
  143  1  U  142.0  142.0  142.0
  144  1  U  143.0  143.0  143.0
  145  1  M  144.0  144.0  144.0
  146  1  U  145.0  145.0  145.0
  147  1  U  146.0  146.0  146.0
  148  1  A  147.0  147.0  147.0
  149  1  M  148.0  148.0  148.0
  150  1  A  149.0  149.0  149.0
  151  1  M  150.0  150.0  150.0
  152  1  A  151.0  151.0  151.0
  153  1  M  152.0  152.0  152.0
  154  1  U  153.0  153.0  153.0
  155  1  A  154.0  154.0  154.0
  156  1  M  155.0  155.0  155.0
  157  1  U  156.0  156.0  156.0
  158  1  U  157.0  157.0  157.0
  159  1  M  158.0  158.0  158.0
  160  1  U  159.0  159.0  159.0
  161  1  M  160.0  160.0  160.0
  162  1  M  161.0  161.0  161.0
  163  1  U  162.0  162.0  162.0
  164  1  A  163.0  163.0  163.0
  165  1  U  164.0  164.0  164.0
  166  1  A  165.0  165.0  165.0
  167  1  U  166.0  166.0  166.0
  168  1  U  167.0  167.0  167.0
  169  1  A  168.0  168.0  168.0
  170  1  A  169.0  169.0  169.0
  171  1  U  170.0  170.0  170.0
  172  1  U  171.0  171.0  171.0
  173  1  M  172.0  172.0  172.0
  174  1  U  173.0  173.0  173.0
  175  1  U  174.0  174.0  174.0
  176  1  U  175.0  175.0  175.0
  177  1  U  176.0  176.0  176.0
  178  1  A  177.0  177.0  177.0
  179  1  A  178.0  178.0  178.0
  180  1  M  179.0  179.0  179.0
  181  1  M  180.0  180.0  180.0
  182  1  A  181.0  181.0  181.0
  183  1  U  182.0  182.0  182.0
  184  1  M  183.0  183.0  183.0
  185  1  A  184.0  184.0  184.0
  186  1  A  185.0  185.0  185.0
  187  1  A  186.0  186.0  186.0
  188  1  M  187.0  187.0  187.0
  189  1  A  188.0  188.0  188.0
  190  1  A  189.0  189.0  189.0
  191  1  A  190.0  190.0  190.0
  192  1  U  191.0  191.0  191.0
  193  1  U  192.0  192.0  192.0
  194  1  M  193.0  193.0  193.0
  195  1  A  194.0  194.0  194.0
  196  1  U  195.0  195.0  195.0
  197  1  A  196.0  196.0  196.0
  198  1  U  197.0  197.0  197.0
  199  1  U  198.0  198.0  198.0
  200  1  A  199.0  199.0  199.0
  201  2  HP  143.79089717438615  199.54877776779622  84.3620398557202
  202  3  HP  95.09415136600359  22.07737869965538  97.14535211824082
  203  4  HP  28.455393363436833  41.97063981504694  79.50581960250493
  204  5  HP  108.84082651911962  165.35501396593907  53.32285223938056
  205  6  HP  71.62515367764146  196.18322748729534  146.99246663677417
  206  7  HP  66.21036332863206  106.91092499256591  135.96891078331564
  207  8  HP  133.358357945153  14.24314066051422  176.96225927183175
  208  9  HP  106.69027371322099  52.385615440263386  181.43133154638716
  209  10  HP  4.150261982136727  82.68247372438981  181.26720914170198
  210  11  HP  161.94724715653945  3.4896797894483855  140.7234109658795
  211  12  HP  51.52344829944291  31.328103737331038  135.22583849682306
  212  13  HP  11.271593051273655  138.2141041871944  104.60853535621355
  213  14  HP  108.04255126503048  138.5542851337146  113.286874310806
  214  15  HP  170.1273888527715  177.26328617245417  35.52463508831516
  215  16  HP  150.5740205348497  147.46150531230404  132.69642464113508
  216  17  HP  191.0127005494114  102.51587974062907  145.675489296555
  217  18  HP  20.869168991531616  94.64073725298006  15.916544046492852
  218  19  HP  107.29629005172607  134.4672128580169  178.61827447953726
  219  20  HP  43.77312284082371  31.607849123214258  67.77349073367711
  220  21  HP  53.36729221699363  143.34455559515277  50.229507187994884
  221  22  HP  55.83901874294259  165.05326762132265  110.55013838184632
  222  23  HP  143.95626110579613  159.35020512459073  160.16944169204746
  223  24  HP  173.12257717848323  114.36245573650794  176.66150210107756
  224  25  HP  82.7746375582227  191.98171626385218  170.57158251412488
  225  26  HP  131.8756870897421  176.04723530612287  12.36640968759275
  226  27  HP  170.10400724324796  173.54515607444085  162.90798330782627
  227  28  HP  119.70738244017731  171.42114307402068  47.770527048754175
  228  29  HP  125.223047670813  181.98946088550466  31.51090868312698
  229  30  HP  68.48785528350243  106.08904320411008  23.513448653034263
  230  31  HP  125.80776200974144  50.80309244811294  176.63984325229225
  231  32  HP  165.3598654256623  77.609445042088  117.2880677516503
  232  33  HP  173.17869203954905  118.8563272019017  147.6035153614279
  233  34  HP  33.46907034822615  158.01058570829142  54.60298642096995
  234  35  HP  170.8878059166618  199.90144138235246  61.58453429186179
  235  36  HP  195.10149894286596  97.19434743761192  128.74786658952922
  236  37  HP  78.68844040980103  3.3407313180916054  104.223423683856
  237  38  HP  163.79799551116875  0.9912121617574154  169.67237705133678
  238  39  HP  26.452921214482927  128.9551155802405  94.02150367009612
  239  40  HP  62.26942017392496  14.467440676613585  155.74963843670872
  240  41  HP  2.8688908339353336  77.89430674414619  97.0296668156434
  241  42  HP  116.48604014295034  35.988589738463816  70.11174498289168
  242  43  HP  21.83072879808914  193.42840103082642  98.17772741509584
  243  44  HP  6.616829722056883  63.4181135471638  142.29071222688052
  244  45  HP  96.54471398303876  67.47580162087425  83.28010970174977
  245  46  HP  143.7560831239842  191.1318497876944  134.33479552965431
  246  47  HP  23.052862265325103  73.50076420151517  183.10925732419426
  247  48  HP  132.89542143495595  112.85703692611658  51.087417238770946
  248  49  HP  90.37581488285606  112.32528115782658  96.7407441303769
  249  50  HP  165.8438584047117  58.17108030823075  168.9749043443338
  250  51  HP  21.210010695244264  129.37810172415564  98.68046113254654
  251  52  HP  39.565505270043055  162.63039570113384  84.38200625545254
  252  53  HP  114.22210447322054  187.6543211873583  91.45175490070068
  253  54  HP  71.64383929302629  103.53165423291924  156.73246488309965
  254  55  HP  113.02005192418724  59.923791819122016  105.88438914220484
  255  56  HP  161.75848582672666  74.39446629874556  199.96533437303972
  256  57  HP  35.66960802104895  169.08474210593164  63.38977347635235
  257  58  HP  182.35189005919943  92.62575996459172  46.14226981412317
  258  59  HP  156.25613419789516  23.43020973950449  155.06417178037913
  259  60  HP  130.39550158592547  196.45724682604012  77.84129216631524
  260  61  HP  62.985929732173496  158.62812737877772  131.15679200135656
  261  62  HP  183.82039094401034  71.83930257625994  29.704728073576824
  262  63  HP  86.31198462456655  9.556668268266911  123.97260847736462
  263  64  HP  192.11756939620062  120.94945619578866  68.30682831718447
  264  65  HP  31.825771057179363  65.17071856299121  152.5009624553293
  265  66  HP  168.07778984594995  182.47571769194298  147.7729043873905
  266  67  HP  134.43135119681628  108.55258683898403  18.215622877632363
  267  68  HP  142.4519412122414  105.246123367051  186.7572284386502
  268  69  HP  89.00938877281253  137.92006098067836  106.33810304125247
  269  70  HP  175.69855037249417  182.52386322590263  32.42590657782676
  270  71  HP  123.21690770691572  177.89848837297012  21.631872177415712
  271  72  HP  145.74930609196105  73.3708963709026  136.17543043946222
  272  73  HP  188.8629017951993  180.92793738735213  87.43081346467831
  273  74  HP  1.101912553754203  141.10149306171564  152.43755505864937
  274  75  HP  126.17595276943308  109.50943056643926  137.40747374410574
  275  76  HP  20.441259570283997  111.60348923531858  118.76819212123064
  276  77  HP  140.39105829966735  146.95624535085787  129.60301056937445
  277  78  HP  90.14429902948832  196.5937108914389  34.5509978752422
  278  79  HP  22.20346013686749  188.74526171080828  189.49811604612614
  279  80  HP  153.49270389231296  90.88751908469288  189.96376799810537
  280  81  HP  116.07339112336126  181.39747713475612  60.655020537330515
  281  82  HP  142.1819647542888  1.4246982889790871  168.9040651385175
  282  83  HP  173.26382951916153  129.01071193072852  163.05646090252105
  283  84  HP  110.67143828009951  68.84151454696739  126.52527613363556
  284  85  HP  72.11688473023155  135.96437716992858  94.5299624965939
  285  86  HP  154.22167977973032  4.320270143690297  124.8710203882371
  286  87  HP  10.671056868468387  63.113491194538575  130.9067535635529
  287  88  HP  154.34525398266425  5.725597419465234  5.943170923560448
  288  89  HP  30.591697247800553  10.49135749095651  87.63745999706944
  289  90  HP  0.32655738816946833  34.79805416574771  69.36173404865494
  290  91  HP  121.41391579788903  50.921071446301134  92.4495619204889
  291  92  HP  15.478160766820515  21.496781651088593  179.22384908568756
  292  93  HP  108.767743089923  58.52778490149182  48.86136647428116
  293  94  HP  13.637806632698336  58.70242494337516  161.82219548297573
  294  95  HP  49.457163384956274  6.93253969266896  66.66592189809283
  295  96  HP  12.714401053821733  35.211326942311175  73.14830580785139
  296  97  HP  0.5236479328953436  130.38117003258446  116.56530992947603
  297  98  HP  107.86396772548537  84.31640993660854  54.68686059883898
  298  99  HP  125.76983029540403  182.68671445779174  79.81328990145396
  299  100  HP  73.78991207592505  178.1442181724224  139.25333329120028
  300  101  HP  196.3606165414895  154.185493487485  70.2812117461362
  301  102  HP  120.61798357611866  81.56980161100451  145.25563720262343
  302  103  HP  109.36869947579298  37.438256105568016  2.4854200515973757
  303  104  HP  114.54799943614451  50.11545603709653  148.1941273278996
  304  105  HP  18.142611518894537  47.32293159119918  136.9398420194986
  305  106  HP  48.786921818361215  15.459156957681452  25.785437484268
  306  107  HP  187.61921633736242  179.20230761365352  152.88481409981722
  307  108  HP  9.034157977077605  70.54363633268946  154.25090780957075
  308  109  HP  26.567638818248884  178.96727323377877  178.17844959172987
  309  110  HP  145.01490015927885  162.74533457851516  159.3363103598279
  310  111  HP  81.19732506173098  192.63568029246002  81.88980951408715
  311  112  HP  34.66161265339909  34.27407934225475  152.6048889674094
  312  113  HP  151.74757693056767  75.15349737301491  65.63117968112154
  313  114  HP  93.29770777570678  3.4212166726235838  114.20862141783334
  314  115  HP  141.23960532522537  128.51787386892798  63.25163245810019
  315  116  HP  166.14053260394354  76.57410320046012  105.16552870862657
  316  117  HP  63.63603175008521  113.34514243996018  117.17311826473471
  317  118  HP  151.787419412216  48.251031088691136  114.30508572871507
  318  119  HP  3.2335301411128947  83.1863442084736  76.02526220566925
  319  120  HP  51.62288490546114  165.72290305228944  102.66198971252909
  320  121  HP  59.835495399910535  11.68614639740797  36.16243404081019
  321  122  HP  35.610276489132886  163.5343937783707  108.59442431148247
  322  123  HP  132.67219432493206  19.275986858496672  87.4407404114236
  323  124  HP  100.63836424544144  48.93936605541889  106.97715185468495
  324  125  HP  54.46542276765247  192.9477167400866  119.452392937681
  325  126  HP  175.43060493496984  0.28212273727936665  144.51340351312422
  326  127  HP  95.11982603215057  81.21463366027237  142.4135626499511
  327  128  HP  153.89550519063206  36.44607372747395  48.19167563324023
  328  129  HP  143.82483055182047  36.75753638954444  169.1394644463031
  329  130  HP  28.902975139234034  118.20364676122963  77.2425243562132
  330  131  HP  198.46353260166757  67.24614044321538  145.05912060006833
  331  132  HP  35.410861668640734  166.99584287853156  108.38650256351605
  332  133  HP  168.9543377778462  112.04835827444548  2.0896124946488515
  333  134  HP  180.6946734343622  184.93234902244907  67.50660781635153
  334  135  HP  63.92832240947166  154.7139273464039  47.43263749301765
  335  136  HP  148.47367727879234  53.86990817484942  130.0208483854675
  336  137  HP  137.62733093025898  81.0824245544175  172.51017554920674
  337  138  HP  159.5977649099055  172.7584618310807  142.85756283789433
  338  139  HP  105.13872484566595  119.61139740400229  6.101132841371393
  339  140  HP  24.866647554789644  65.78565661015008  19.42019267146844
  340  141  HP  121.44974926090744  105.73619030437362  144.309364164474
  341  142  HP  116.0510563689412  199.1577516546957  119.96962224913175
  342  143  HP  149.540234831764  153.4973994687223  19.596270914017143
  343  144  HP  187.57239745409362  197.30808579854934  142.81642759943242
  344  145  HP  60.549917713906986  4.722405405785768  38.77098374417531
  345  146  HP  97.7198820702779  129.7946077272796  47.87027878512517
  346  147  HP  72.97155091405556  0.3028597409549416  105.64675015095813
  347  148  HP  93.5121022459454  128.60529984716837  173.92719034415018
  348  149  HP  103.40624835535823  117.42684061963982  9.241992349596506
  349  150  HP  39.4329632979191  143.77246248599184  47.074123057455196
  350  151  HP  141.98732761291652  159.52673873353234  66.99875140579393
  351  152  HP  183.99240713418845  57.21790699377478  172.85630532740726
  352  153  HP  53.461460800081426  42.05063976036747  28.420717781340166
  353  154  HP  155.4040489408401  132.06523761503715  41.10176985407956
  354  155  HP  6.4796479584036115  41.18220480609778  92.76863335002643
  355  156  HP  79.23356243196137  177.60982825540304  168.81990330572455
  356  157  HP  113.13822796279067  64.88119630516212  148.79532235859597
  357  158  HP  75.98670162617975  61.751418810955386  156.0528232950791
  358  159  HP  131.0002835669749  127.00239883081332  56.273306788025664
  359  160  HP  86.83865520148079  43.828134822135766  18.098501591698746
  360  161  HP  141.70503112355595  85.76864565925347  62.00344670153568
  361  162  HP  61.49902426412943  110.84027801044287  52.13591233952919
  362  163  HP  65.36379600810018  84.68996508894968  10.310957679511956
  363  164  HP  90.69708554798169  65.0855830952513  156.61761008520273
  364  165  HP  186.24364700031677  98.39310761895506  192.78157227634918
  365  166  HP  189.52749514371564  65.73815712471554  27.092923823047997
  366  167  HP  65.51223308755362  147.1080902819832  29.19224290183957
  367  168  HP  183.30798051652118  123.5959264550501  21.66398428668337
  368  169  HP  48.15077151036593  155.27754098492366  138.9829853547348
  369  170  HP  33.82297269606258  122.07432643076521  12.658035238725107
  370  171  HP  40.357481121560966  23.354451154790713  119.4671090634526
  371  172  HP  113.58570347773538  93.10026007458272  130.45541026205368
  372  173  HP  93.58329060176314  115.53633405267306  147.55804708650885
  373  174  HP  49.353917316715965  107.13380043531657  189.47842083488163
  374  175  HP  49.71507408015907  90.06454424873289  100.27114076404197
  375  176  HP  154.92547139869794  36.958261526212844  5.918930790394961
  376  177  HP  100.67298163179488  175.07960841907934  148.93140849446092
  377  178  HP  105.92695989552058  121.85060273143506  166.86487480296344
  378  179  HP  18.423031699535585  45.926315786345896  54.640502667399126
  379  180  HP  170.13388833836655  22.371531257215473  61.62555728800185
  380  181  HP  67.36652088631479  82.74353664494842  180.25857380950637
  381  182  HP  48.286076598613434  93.7452540330252  41.60096253210668
  382  183  HP  183.44847334536624  174.51360360521312  184.11528073047484
  383  184  HP  107.24849194327976  40.37265780980401  67.0882521556187
  384  185  HP  106.55576843970832  76.15945550062331  103.98929140629134
  385  186  HP  93.25225817885581  90.60530046324762  125.59325164264989
  386  187  HP  132.5266297350511  5.34655438145355  56.97052679806587
  387  188  HP  26.667127662412128  194.07142591273248  101.99648310218828
  388  189  HP  96.90151457356401  159.72648819271123  15.967680379419402
  389  190  HP  9.32480582786075  60.93581625281672  107.8588761611905
  390  191  HP  158.28038250708565  58.12629913098946  77.11640315718353
  391  192  HP  119.0150496456414  146.02591920664315  194.89463829411898
  392  193  HP  121.84669185428166  193.4473132004757  82.67644864493687
  393  194  HP  152.23968052384572  43.726781407133906  34.56495803682233
  394  195  HP  19.78961609356167  128.81027885638454  26.32409256288124
  395  196  HP  176.48177226386954  41.02666007395857  68.952492961787
  396  197  HP  179.3963330481118  22.632343764495587  8.253294719813354
  397  198  HP  90.66503762792877  9.3789068356662  15.454165316446167
  398  199  HP  35.43258235709273  141.65200109006386  8.969664073502305
  399  200  HP  185.13916885228093  168.66399292236537  98.65676955804972
  400  201  HP  34.464440990913744  76.2267589705565  116.40056171941917
  401  202  HP  66.20931644255863  22.69398825579241  109.77015302806859
  402  203  HP  137.05392961541645  123.46092501094638  34.26010076845141
  403  204  HP  78.94745749921934  149.02781722174825  50.198841880873935
  404  205  HP  176.20485832150666  36.104414677878104  1.5334089334653855
  405  206  HP  27.67110438165559  99.98132772022142  196.62938298889392
  406  207  HP  191.739051057087  93.53946601682148  119.88481381289662
  407  208  HP  118.5981969460958  16.86723149424576  164.71539409438685
  408  209  HP  57.14955600587306  114.06831309346504  121.49970864459314
  409  210  HP  58.82815118241065  148.38803526468695  54.509998953584635
  410  211  HP  91.21412565488194  53.710527597378245  123.49093337585681
  411  212  HP  51.10545450008637  133.32587668078364  99.89986541857112
  412  213  HP  76.7849052576994  38.12916677011646  17.43780007783289
  413  214  HP  113.5137326994623  63.68558068359651  27.005989479678227
  414  215  HP  108.9736904179345  81.13697473976553  146.9064587782818
  415  216  HP  62.78653196985604  117.65372000988997  105.29168329412457
  416  217  HP  64.6987455477511  163.55855722638418  56.81862977414824
  417  218  HP  67.77552792931387  7.991755845616  183.03063916613175
  418  219  HP  26.619377450816884  166.29324707149738  70.32883894119823
  419  220  HP  26.597360263445303  97.78005664185466  76.63788289586991
  420  221  HP  189.80322779032736  124.8734905537569  175.70487089302839
  421  222  HP  94.26260781533016  136.7521047934235  66.87810820778223
  422  223  HP  144.85538510057904  19.515509766926066  116.86469319432953
  423  224  HP  71.86772249128263  34.45569306918364  116.24362854247781
  424  225  HP  139.28061823989265  8.226869132581971  172.96994051679656
  425  226  HP  189.1072351816449  34.48895780068386  48.165670708924125
  426  227  HP  53.27720561049141  82.84992005880444  190.142202913892
  427  228  HP  100.35346143505987  84.41892861638753  26.30774331744925
  428  229  HP  69.0129539755249  69.58678945751934  53.927281292089965
  429  230  HP  109.12584072812142  187.31689589697024  179.63717464002485
  430  231  HP  28.89065834042084  122.18042453433404  25.898523117198824
  431  232  HP  105.4333852105688  199.53826128496618  144.71750621111227
  432  233  HP  150.73637892997036  111.12557014291542  134.88889269029124
  433  234  HP  81.0553425187787  145.83943621599008  167.42645331323635
  434  235  HP  96.79341255583512  2.503577348284858  12.668320234704499
  435  236  HP  115.53334287217459  165.0891033341217  80.42395658457475
  436  237  HP  35.43623293072471  120.0354557658503  16.60615838117647
  437  238  HP  62.21880356825835  126.53486558584027  57.632012390001044
  438  239  HP  47.00153892865884  25.96261932651842  187.305890362854
  439  240  HP  131.87743778502318  70.75333571135234  3.278069424132113
  440  241  HP  3.906288549057102  120.31407314893868  25.420157272069055
  441  242  HP  20.887582135592453  26.099555069380287  133.69940313013836
  442  243  HP  37.09471544528249  171.72321506796925  160.99151725258196
  443  244  HP  178.78831275108652  22.767182652090924  1.1769010061659646
  444  245  HP  130.80803336002472  77.26328971687792  182.6430492961221
  445  246  HP  181.29728603102936  117.05366670492938  172.17151947256454
  446  247  HP  142.4261313988201  135.69745604650868  36.39641157286129
  447  248  HP  106.32880101602491  68.05121974774335  117.13094410301022
  448  249  HP  108.52860161283178  123.76214948303705  170.04985849634227
  449  250  HP  113.61754070517065  194.41480027875627  85.96633741220985
  450  251  HP  33.105987872638586  148.30013770754206  190.44382258644333
  451  252  HP  23.34299911197848  69.70258008070871  82.57687635614566
  452  253  HP  122.31099563248262  155.99541966477625  127.39206327643468
  453  254  HP  128.66832035395623  182.80145773386934  146.2024189842128
  454  255  HP  84.02868985766952  97.11944569939925  124.58463381893716
  455  256  HP  97.78763889233718  177.70260753692085  71.35305414781308
  456  257  HP  181.20947716343963  167.58711532985706  162.34648344212778
  457  258  HP  125.46789534668359  175.2489043665297  89.30149746645478
  458  259  HP  147.84145715887388  124.17855586637987  148.31949807060099
  459  260  HP  156.31642172391923  51.680603758830635  41.205035626451505
  460  261  HP  49.99325555714742  118.55956245026766  31.472523830034294
  461  262  HP  24.75075618041338  71.0465187832835  57.13569136985242
  462  263  HP  48.65961506112764  54.256029328432454  119.71115224665914
  463  264  HP  78.68450585816606  12.42418775072931  33.66454914717265
  464  265  HP  77.67483328550169  134.5935252697655  118.00894760975294
  465  266  HP  190.7867094089638  172.13827535703928  12.473703369439315
  466  267  HP  159.88572342854664  81.1386568434414  9.298767961007837
  467  268  HP  44.71476294598473  112.1506580403598  66.63085859599573
  468  269  HP  64.04339969630823  136.4608940498696  177.5662383524925
  469  270  HP  173.16242867956586  72.66016869388557  26.333787571339727
  470  271  HP  66.04712356942647  117.0670186301497  39.815980346059845
  471  272  HP  39.987846353853485  140.03222729513533  94.66125161533337
  472  273  HP  35.31018590803037  127.09802125233534  45.89273170057886
  473  274  HP  154.72496584602013  161.26245426076787  101.32573415623239
  474  275  HP  27.69508300935668  102.44408317845807  33.71865477498304
  475  276  HP  87.20363473547938  188.67438159257586  86.14715238611377
  476  277  HP  105.8096233073049  157.06043674634103  114.94351580334035
  477  278  HP  94.49395881598817  114.88620108968198  8.694027379552471
  478  279  HP  25.732097080025483  174.57561711634892  108.13059318629894
  479  280  HP  135.29431253562737  25.56554549543062  128.873835195853
  480  281  HP  85.66335793363184  78.1727954693686  100.52107803198207
  481  282  HP  173.96783639926545  52.60396808748793  159.57802908536925
  482  283  HP  118.52416155623438  127.03157104401492  157.6935215567613
  483  284  HP  126.16163297425871  196.50499121164117  176.88268169607412
  484  285  HP  13.461767881953168  190.43884320094173  90.92959795250763
  485  286  HP  192.78297587720402  38.74884802602176  11.89190371776736
  486  287  HP  12.726044143246273  186.75504070694836  100.92479586119185
  487  288  HP  16.532347448348528  193.13678751337724  17.211152548532805
  488  289  HP  118.79428358081239  72.67161998764537  163.8394570375303
  489  290  HP  73.92448935771907  65.98216377398319  171.45221002769472
  490  291  HP  7.199846692844414  33.535519734025954  114.92292383034575
  491  292  HP  0.2734042564663586  112.4323844401988  190.87605367647598
  492  293  HP  0.32661489831360413  45.82183728402334  178.7431569934921
  493  294  HP  164.36379182781945  0.45749138060700023  146.21884475432014
  494  295  HP  159.48862289935417  8.978702783529746  127.85329614931756
  495  296  HP  107.44296370316941  94.25110812587127  29.441170145689167
  496  297  HP  69.28883622810804  11.733460296762876  142.6613666464142
  497  298  HP  188.2272215613247  96.87912588707125  28.218718552539702
  498  299  HP  56.999061140577844  104.2087062645589  75.89186173807634
  499  300  HP  75.51026295967674  86.44738593484844  144.13603963272618
  500  301  HP  34.41099651913826  8.095141103788595  40.1470634072554
  501  302  HP  80.16632133857537  173.579334883911  80.12095278653972
  502  303  HP  98.96371684010256  158.95028871428062  76.8079731459711
  503  304  HP  192.03218874844558  170.8531451411184  191.41434398666993
  504  305  HP  49.14092684710462  100.61368024270756  119.86520039024686
  505  306  HP  125.90102599007511  108.77291986503596  160.8103105098692
  506  307  HP  115.37061973189466  170.36008328654302  45.04481242610334
  507  308  HP  81.98936751455703  90.7944353594167  53.04630686655527
  508  309  HP  155.0271078592007  198.95123467223362  52.47922283996209
  509  310  HP  34.06435842311528  1.3626073844416497  63.44518131423118
  510  311  HP  137.2963923555762  26.63646402205442  100.6949957599851
  511  312  HP  118.86989722743697  87.82076137839401  13.585204077357815
  512  313  HP  9.242143876865017  94.54653673475943  87.19736814265164
  513  314  HP  148.74128645882874  108.48055914252721  7.698673594022898
  514  315  HP  117.09927593534934  173.36034188565205  133.5975960508408
  515  316  HP  60.91468514345139  30.457548531584244  128.40501949238654
  516  317  HP  85.03966977457334  194.26388375649478  198.48181905278915
  517  318  HP  171.7323190202708  112.43457517538835  193.14336366225518
  518  319  HP  155.49367035024056  111.76328101785407  35.00998986351569
  519  320  HP  111.77999182554856  199.7662858271928  79.71553113702487
  520  321  HP  96.89456082730797  164.1578651853934  144.5168096040153