# Initialisation file of the particles

1000  atoms
0  bonds
0  angles
0  dihedrals

1  atom types
0  bond types
0  angle types
0  dihedral types

0.0000   200.0000 xlo xhi 
0.0000   200.0000 ylo yhi 
0.0000   200.0000 zlo zhi

Atom Type Labels

1    HP

Masses

1    1.00 

Atoms

  1  2  HP  69.93958070079947  17.165996317160847  91.65515547228942
  2  3  HP  145.88054498279504  116.94625164317077  153.89033082991065
  3  4  HP  107.17686317229234  145.6756739861003  112.85115841716656
  4  5  HP  122.65226554181885  13.557913491359773  47.22234092276112
  5  6  HP  17.985737728351747  180.73690699863397  79.03421609441376
  6  7  HP  163.8024483922525  101.2440888640618  157.73024880313451
  7  8  HP  69.97285778240317  57.17996968763677  81.77764927050436
  8  9  HP  76.67625163598618  7.989988058401742  27.04130308267738
  9  10  HP  180.25788376620574  77.7101481333973  10.274525628255414
  10  11  HP  133.3959797148458  41.077720118235405  88.62416352452391
  11  12  HP  82.65034063960141  61.32370101083211  143.91529261625692
  12  13  HP  35.59070728152389  25.758100636052284  150.17528272042014
  13  14  HP  29.554217960727836  43.13354055960363  179.86733523019026
  14  15  HP  149.85976660752664  28.680880229289297  155.90225127601823
  15  16  HP  128.52404344867358  173.17794628565323  83.36940579249195
  16  17  HP  196.5607704843982  149.5409514305211  31.16433881248404
  17  18  HP  13.50665008396974  76.91935600515933  138.05557360614907
  18  19  HP  67.2123868957284  48.07644846051542  73.24111617208415
  19  20  HP  127.98886961287263  154.01545559860713  154.11138200208038
  20  21  HP  83.86070573403974  171.4094439184899  159.35985787087645
  21  22  HP  87.06862098327197  101.41436879113365  171.1350824364163
  22  23  HP  50.08288724860775  172.31144527503847  52.889651311506604
  23  24  HP  193.2286087085586  173.700827451751  1.1473873659928469
  24  25  HP  61.79700967192188  67.57822526556727  76.42901955780394
  25  26  HP  77.86743985623326  156.5023940973727  122.20945383042047
  26  27  HP  17.73683044245722  22.643681638876846  122.46002762736752
  27  28  HP  87.42005522547271  191.93527811850313  93.2315332669879
  28  29  HP  174.50670857937695  36.052054819299805  199.138200128863
  29  30  HP  110.09230819744576  137.65613051778354  126.7612706781729
  30  31  HP  151.59340274329116  94.67473311936449  110.63929359963223
  31  32  HP  182.91563113011398  83.3429066893063  179.41377757180626
  32  33  HP  186.09577334712134  181.01223007651802  32.684798315583706
  33  34  HP  186.53223860558936  154.55274802773843  162.43010933490098
  34  35  HP  124.29501683347202  148.8876184927441  60.41858283112078
  35  36  HP  89.35087815761015  131.73606369052249  23.034599920847775
  36  37  HP  110.15888489527643  41.68898660316784  121.75214222988251
  37  38  HP  125.14761883155305  88.13266704711269  44.66990675316973
  38  39  HP  89.32216823539581  63.81139050839757  99.30795284978741
  39  40  HP  156.09341003468148  150.1207630729152  5.559756279477979
  40  41  HP  60.043916218813266  164.69966559837803  60.254711353535754
  41  42  HP  13.150609808834247  83.05237873176792  102.46349682516174
  42  43  HP  98.195215642025  199.5001284889395  195.65180120639505
  43  44  HP  95.47912529812169  172.48840338952206  154.4308759958399
  44  45  HP  160.2376635127721  147.725918128752  49.577893430097774
  45  46  HP  60.12392995163154  198.15141419786215  35.14046385296999
  46  47  HP  177.1083703984682  142.07383617975484  10.541444778888941
  47  48  HP  82.86921579873288  63.08075047371338  192.2837239969772
  48  49  HP  78.69099530446866  51.00142790891105  0.7330769311604479
  49  50  HP  87.4387682004213  138.3681488856763  74.85033020817069
  50  51  HP  79.46639619610426  73.35421771760736  191.91892367350124
  51  52  HP  190.88082159896877  25.46784936577662  2.890946657421267
  52  53  HP  192.02533939527643  101.03176782583154  120.81166806476293
  53  54  HP  66.65090931426705  54.40470317783086  112.0544668023557
  54  55  HP  157.28885957818423  125.13979610386923  9.700326830851203
  55  56  HP  46.62288540412061  27.865322314343686  47.12013667734563
  56  57  HP  63.42440034994856  92.56771674967487  71.64193306168991
  57  58  HP  136.3458402320502  141.08102425375745  156.14031137331705
  58  59  HP  24.056963346939696  0.13828097476926704  158.32363850441192
  59  60  HP  74.45517979920007  61.22559840212283  155.06166914518514
  60  61  HP  140.83364264399017  31.928183751966177  60.08960774295171
  61  62  HP  57.9688925960373  158.2022654326992  34.571470355967016
  62  63  HP  153.1677365375658  54.543741298396476  115.51952241218486
  63  64  HP  172.25074259142187  23.617492790502403  24.05761212020334
  64  65  HP  11.667955243616102  29.95174212458027  84.88172217611059
  65  66  HP  172.67982670745238  41.54295904349008  48.44120669773175
  66  67  HP  131.54752912664873  195.84892395657414  160.97973777984328
  67  68  HP  38.60466764744528  1.521685872382772  102.70769971546032
  68  69  HP  81.81663145707535  35.249722980943396  44.77870631992782
  69  70  HP  12.495040811560632  150.46055059787918  86.0162929425408
  70  71  HP  159.0700807907307  187.39351283867995  135.14887720610798
  71  72  HP  89.45173134293101  15.029410739464154  183.73365407557588
  72  73  HP  53.637622578857936  87.74904144911639  26.67641095815336
  73  74  HP  165.37472195281447  166.11143533925346  196.19388837191792
  74  75  HP  85.59504526197028  130.12174616203663  92.54807458437088
  75  76  HP  159.05777891275014  81.97571708832714  46.512071949242454
  76  77  HP  144.36606278320374  87.5269365785706  148.60604656787618
  77  78  HP  51.19591452811376  146.09732210200082  43.71718959267268
  78  79  HP  177.37003220774693  81.87743750170895  112.4893452043488
  79  80  HP  4.164178886308978  165.79298662093464  188.84080828866118
  80  81  HP  45.89313711663432  142.44180633956157  197.68548041602102
  81  82  HP  135.60338371896526  118.51572277913583  73.79833494071033
  82  83  HP  101.39480057362142  189.4111825143626  133.60338652311498
  83  84  HP  183.18204523864776  54.13484955676746  30.173937375792548
  84  85  HP  158.19744415072074  196.25250201413235  171.98728487252168
  85  86  HP  40.12290848923576  180.3249352005333  173.87775873291255
  86  87  HP  92.3959926144938  30.986788559534695  14.826103583101347
  87  88  HP  184.79827391604286  32.45446028565235  136.40184975644706
  88  89  HP  170.819546671567  64.7736563577585  96.51633905350148
  89  90  HP  27.855071160595692  169.27133146006065  129.3602347191066
  90  91  HP  185.74950193113742  83.74094047513265  80.50455733365074
  91  92  HP  14.876972984279258  168.85359976094813  26.84259860842644
  92  93  HP  158.14654328174808  101.7567814483927  54.30356887438026
  93  94  HP  66.47764720521283  167.07508053360232  121.09011647314215
  94  95  HP  112.5095664028086  8.63974351890404  96.22904539116696
  95  96  HP  24.97149041378437  151.98768267633156  136.70634791577208
  96  97  HP  32.480339239433654  36.77729411354391  112.37959364247536
  97  98  HP  110.61547484371992  12.053528708604944  5.363328432058867
  98  99  HP  118.37552143487365  108.13724167757542  15.741474919627096
  99  100  HP  198.51583379674088  179.36750770007103  68.56934365377394
  100  101  HP  166.47605857934695  150.45158461510943  179.0931464917155
  101  102  HP  122.7141170174534  8.812148701738497  42.76159490271092
  102  103  HP  145.6773752054552  125.83500647185953  48.235071714324505
  103  104  HP  7.2535478834737654  34.574434255044984  113.87814310492278
  104  105  HP  14.000404228301333  56.94854052044063  14.24828218304337
  105  106  HP  66.18811724996448  149.24793272954508  56.98313303039721
  106  107  HP  112.91642158518403  67.46857850932837  75.41296051143969
  107  108  HP  117.41062709347621  128.59407600901747  19.406935998773967
  108  109  HP  101.5934440459066  104.76727516505346  115.3265854689679
  109  110  HP  116.99521761021738  102.46339030375702  194.5854331094585
  110  111  HP  66.61562280967057  197.670003214877  184.59612104741836
  111  112  HP  160.6384113726666  24.131795921599664  137.58310840338115
  112  113  HP  58.250310787195914  13.421327317078147  67.23612106156006
  113  114  HP  82.27294998249228  101.23491167067706  183.32217074221217
  114  115  HP  194.52823586010047  187.02395038057145  59.01050991824057
  115  116  HP  172.53080808638867  73.93336012625005  81.27125303128804
  116  117  HP  175.28141951592087  192.32857601917596  129.57043027658062
  117  118  HP  18.803773231524488  49.907493324080995  88.74316262024774
  118  119  HP  80.09111083349258  90.26365238882887  145.21757741150853
  119  120  HP  60.000373275087206  69.96817729489366  92.44423027147187
  120  121  HP  85.38165234665915  175.14268648943874  68.31866624285676
  121  122  HP  50.069197981684766  1.9474779294694544  42.275607092487235
  122  123  HP  169.2043678813785  111.31128175076539  148.56245192281816
  123  124  HP  83.71070262666458  168.2618908105911  131.0843271589954
  124  125  HP  162.85182294354058  139.3839218465647  176.44220379263393
  125  126  HP  49.15613664785863  48.67118342379535  36.19293507792458
  126  127  HP  77.84789929749539  158.27997451489207  123.59293420618833
  127  128  HP  123.03284890585556  163.41923008404586  140.48596934665608
  128  129  HP  188.1286725492071  29.19075193857472  87.82185344069045
  129  130  HP  83.20396333279814  121.41958263254035  3.518454108402147
  130  131  HP  3.6166743420689373  127.01570897395482  151.66643324050048
  131  132  HP  53.476018982945625  185.65067979383824  198.29314011410622
  132  133  HP  140.2866204805099  89.52729172985849  130.8403445829811
  133  134  HP  74.97879004267021  67.28013789828064  172.81620415580687
  134  135  HP  145.3718433540484  120.82043802342841  35.30856318750833
  135  136  HP  99.89619324210165  43.73843626439877  117.47299780328906
  136  137  HP  136.1871715257368  135.0222108588389  80.69758596647392
  137  138  HP  17.50687155471109  47.46551991173264  35.871256921217174
  138  139  HP  50.39384652214045  163.6449964570025  21.929131229878784
  139  140  HP  126.48366543818706  86.04351905226673  159.0806024706098
  140  141  HP  58.682747899658814  37.56907396566731  118.54064554087103
  141  142  HP  104.53742432752524  108.09140420761582  128.49421314638337
  142  143  HP  39.34705300122094  62.93885746704664  141.7908993669368
  143  144  HP  23.01105057380608  114.84951134119635  179.2920491401521
  144  145  HP  50.83593920213032  73.94048939262564  125.30174422993785
  145  146  HP  114.15927797867829  91.43432616384443  147.24740290159164
  146  147  HP  49.683802433424454  125.34774880028463  104.61505101538502
  147  148  HP  162.75928679281273  183.4184855441108  155.6591891259866
  148  149  HP  99.6407677674521  44.83664118537134  91.94665310857894
  149  150  HP  51.692265651729244  129.8047538537795  24.186498552060364
  150  151  HP  29.596744567755007  149.76137155589709  24.89473745506128
  151  152  HP  181.16854890766783  170.8635019697154  97.30681827435849
  152  153  HP  43.033839536644855  31.29593177904426  40.058175380160236
  153  154  HP  54.69373623263676  113.72819678683277  49.7294374503628
  154  155  HP  148.0300300785613  27.869822633166663  67.43011818254246
  155  156  HP  95.87048445534904  52.81391669509523  8.911198554477417
  156  157  HP  169.36540231325645  123.87010788060475  9.25675983601355
  157  158  HP  96.69297720705019  178.98793902706603  84.84538903932162
  158  159  HP  160.12718421777524  193.42569435786208  134.46106240095133
  159  160  HP  61.515348031156016  124.0678678923092  184.71044587153514
  160  161  HP  79.02870058125531  22.7127565031928  113.21206251870865
  161  162  HP  152.82115753352835  179.98023563348005  8.746084441654233
  162  163  HP  195.1436615002255  116.32143100387724  191.80507694075297
  163  164  HP  198.998046000238  111.8066686092354  9.112155172676806
  164  165  HP  12.750476262205645  167.22693323349276  17.98247808950597
  165  166  HP  97.73489614534827  135.50937040371488  39.17697649030902
  166  167  HP  43.36633488240007  54.827423922429254  91.0832557060578
  167  168  HP  47.9334784268338  193.94913273984287  198.52286677131363
  168  169  HP  195.48504996604936  154.25243257394914  63.740761947223845
  169  170  HP  167.31290713002414  100.51309872673558  145.875950245302
  170  171  HP  0.5512676180709164  115.71434707373453  21.711906070003707
  171  172  HP  41.940998574635024  53.82445676323482  33.36951700863728
  172  173  HP  124.67564092847002  42.64481229523707  101.89440957612763
  173  174  HP  167.6595196098123  79.08417293214302  90.36285702071423
  174  175  HP  179.00205796207206  166.00438689627526  13.552290866320948
  175  176  HP  78.44076348583302  2.94571794294316  76.64235178592575
  176  177  HP  27.336991781350694  24.87830179919368  122.11182136794835
  177  178  HP  170.86167359081986  83.4571021844789  93.44584441742609
  178  179  HP  159.62047119766407  7.1067417021486  22.47225012598948
  179  180  HP  10.783501667428297  181.97592711816966  128.75445374569867
  180  181  HP  52.09412060089558  142.41337916687763  65.11857061640556
  181  182  HP  99.92260130984062  32.28070313673377  69.14927146413899
  182  183  HP  54.161007467775924  172.40725126179905  81.8300489476151
  183  184  HP  140.8770565329299  160.92105104321882  170.9782392624263
  184  185  HP  102.3458337150974  142.61737153610838  70.49011900017037
  185  186  HP  86.60048925773569  141.78301937007325  133.4168193942095
  186  187  HP  187.32344608159295  110.39202505402741  120.9417600945099
  187  188  HP  26.247276263808384  139.69581343624338  86.62799437979638
  188  189  HP  50.90538905841227  110.61558970645773  52.98415663286544
  189  190  HP  40.91497039449274  77.76919670913527  122.51425319946824
  190  191  HP  49.78851327367204  106.4377647061071  141.67198993136807
  191  192  HP  165.1147277282851  8.8558563252076  115.73930976018293
  192  193  HP  56.09526924229493  157.90521722922236  111.24531757525698
  193  194  HP  153.42020728104444  8.17458266064406  3.778271661569388
  194  195  HP  94.17165204045885  9.082505070494062  109.52843678517365
  195  196  HP  67.6304240657835  117.42455489548253  120.31231554582196
  196  197  HP  187.1131217904754  119.27814804775893  42.0994595575646
  197  198  HP  9.57421883086056  41.10519979308762  99.78714716664008
  198  199  HP  107.63947741643724  76.41124977287468  174.71367544600432
  199  200  HP  67.13128475099248  47.34810348845207  158.74550957698892
  200  201  HP  76.22383634039312  59.94198451842359  55.49479338852012
  201  202  HP  58.14269406948787  44.11555472190334  17.492872931873915
  202  203  HP  136.9816848370077  15.77311478133694  69.58211014050015
  203  204  HP  50.79372961583668  196.16575733436895  97.67764931773704
  204  205  HP  44.28133741990692  133.90746577513463  51.223575383023444
  205  206  HP  98.86978735656969  123.95835446679118  75.71976790773303
  206  207  HP  188.43017818360795  161.270259622954  119.43538215594415
  207  208  HP  41.00891569631675  163.15325650878475  166.48337541103524
  208  209  HP  190.98031592951753  133.17725541660397  77.46192821049324
  209  210  HP  65.3844180181187  115.29424132411432  50.975051112908545
  210  211  HP  196.41656961453623  62.697654473844786  24.203003354186702
  211  212  HP  86.77656384350232  9.593662205816212  133.5751581359077
  212  213  HP  189.48191980077524  34.68948880300322  137.9004977700899
  213  214  HP  107.97290712646894  145.0693359088136  149.1966644461931
  214  215  HP  133.4978946400647  93.67355679921646  80.57250091922768
  215  216  HP  159.79206635592564  161.84200553105723  28.28658241299078
  216  217  HP  108.54429971279176  126.67808280171337  167.2528285266624
  217  218  HP  7.444321174533797  50.15606919857581  45.96904624977771
  218  219  HP  81.58449997186865  0.13647095824202982  75.94824296613658
  219  220  HP  140.84627428675026  186.79042038310266  155.991423912633
  220  221  HP  34.82844813040069  115.7651730987507  175.51955564423352
  221  222  HP  187.65635126172788  117.93969644790457  159.78167169167497
  222  223  HP  54.7282564409751  13.80362491763183  107.69304168518794
  223  224  HP  77.34017983418609  13.120616556315245  159.7195577562458
  224  225  HP  143.1778614349346  14.46038661946023  147.04467788992656
  225  226  HP  194.47508335025546  43.3155343799948  186.50867805908013
  226  227  HP  164.6978212728587  170.40333791900622  16.671669672562352
  227  228  HP  44.02472060958442  185.4922695737491  160.89706123956825
  228  229  HP  49.417915690611245  63.41171665832783  37.32069546614092
  229  230  HP  12.750570201438393  78.19735708479969  99.18298013440767
  230  231  HP  106.3357951878515  187.617650982222  151.72397538019743
  231  232  HP  174.42296486130599  189.62348634394493  17.92897470457242
  232  233  HP  172.01644880081543  198.95626141147545  191.23858016078105
  233  234  HP  35.886571296345736  197.73557106008056  110.43010823289221
  234  235  HP  7.074476169390409  123.7955747385709  44.474628803456916
  235  236  HP  44.87507886062174  20.700312055116086  119.89585075937244
  236  237  HP  80.4671571595003  31.877947538534702  114.60538029831395
  237  238  HP  147.54937429090137  72.27835155501118  0.5837954316020966
  238  239  HP  16.78195647109404  101.5980046477101  106.86138982306636
  239  240  HP  196.10113468372913  182.6857117878012  106.32190370124708
  240  241  HP  196.4306804932334  121.78744286480578  160.54775041005166
  241  242  HP  119.31474567163288  165.76369868675957  79.91071961285516
  242  243  HP  191.68992609956558  142.53823904735893  65.79165396397657
  243  244  HP  69.23422197324088  89.18607952635062  159.74725142380575
  244  245  HP  128.46462625059985  114.8104183246761  34.90043061517378
  245  246  HP  20.140284287310628  128.69642287657265  157.0809016028707
  246  247  HP  12.450022742708988  92.98666473994518  87.79917941654443
  247  248  HP  3.421244402420509  28.54662425392098  187.72784881543237
  248  249  HP  11.743895521190373  171.95008737309502  118.77038288403345
  249  250  HP  62.836354155117306  86.03060305619748  63.48022462292591
  250  251  HP  45.658856880237494  6.077680371943162  198.0613413694272
  251  252  HP  80.2912898461648  191.06587442117717  102.4402388710927
  252  253  HP  140.20931653695104  99.10436979203325  58.95488737586301
  253  254  HP  20.912040030436874  121.27718627368267  81.56636069985524
  254  255  HP  88.43936873260185  78.27957985317727  86.40131965992606
  255  256  HP  122.00575749418887  12.339386406110275  14.617662648476859
  256  257  HP  18.57218488816237  95.81714911843879  85.51741615519126
  257  258  HP  53.79024791547158  81.49175378769367  163.51381952128833
  258  259  HP  91.3024496683873  71.59771382179375  99.27759831587339
  259  260  HP  18.051573823739474  199.57031152092046  190.97984983214312
  260  261  HP  167.09769413932557  26.47966368304393  104.98967937670037
  261  262  HP  12.13613268203979  103.31226852950152  40.99525180937766
  262  263  HP  97.93737415604085  87.02006766064305  72.61093134492968
  263  264  HP  54.19173606098686  31.192870281736806  1.284832439797512
  264  265  HP  45.73845786055644  142.2532533655262  155.3902103310853
  265  266  HP  160.57750676265206  172.02653981975334  39.40309135066143
  266  267  HP  133.67636793076628  16.368844733956568  24.25972647499004
  267  268  HP  151.38658005219173  96.37448167062159  135.26989374756155
  268  269  HP  0.17637385046858078  82.0592260234258  57.01775074946551
  269  270  HP  131.9869062209635  5.99922988835786  139.93073802375238
  270  271  HP  90.58478542355908  194.22107346488738  2.790519105112055
  271  272  HP  135.04128235004535  134.47233185449076  27.52553151653172
  272  273  HP  64.68131568962848  55.55387168662585  106.24017594181716
  273  274  HP  99.18430537528855  70.93595431994217  154.8898907460979
  274  275  HP  53.2715902008734  158.64113830608954  199.65008679969893
  275  276  HP  164.45861693227718  60.92713249434824  122.16443118435684
  276  277  HP  134.0997360434858  93.94930531195808  159.57435948218793
  277  278  HP  81.82601811914982  48.73794215406979  99.78957944728258
  278  279  HP  93.81181293629936  88.93218985841058  154.46738678892484
  279  280  HP  51.276726847756926  103.46015210755131  198.7763292091741
  280  281  HP  118.83690985234439  4.718418981043526  143.74053189289162
  281  282  HP  27.392906807523907  197.17581634753986  7.213692119614246
  282  283  HP  95.98462987725182  22.344863445972752  173.96369177257208
  283  284  HP  24.469995102223606  85.23979600383515  2.5762285687759956
  284  285  HP  48.647535986757504  199.25767198164394  183.346496435581
  285  286  HP  157.0268711700334  65.14751934418305  142.8082661593828
  286  287  HP  114.22448227126823  158.1635511163705  106.52371342262381
  287  288  HP  140.39926380809032  186.83221683675026  184.81119608948373
  288  289  HP  3.8354766168470222  12.871365673325986  156.46737956691848
  289  290  HP  94.41121228221736  13.781634137377342  43.124300093432886
  290  291  HP  141.49585501280896  74.83946834473568  10.628725078879576
  291  292  HP  35.38193620256622  192.23489731236916  108.02173075346424
  292  293  HP  128.11825904571558  133.64138611147263  120.96062040389273
  293  294  HP  192.67935547967735  0.6187208537489219  69.69687620173556
  294  295  HP  67.17384819463878  12.227430583063414  190.4936234329406
  295  296  HP  189.01379759001279  80.26176176454413  152.1803229015892
  296  297  HP  136.98704061815542  142.439017736479  102.4629738278849
  297  298  HP  195.65379584084917  73.62831242824089  85.0929827109278
  298  299  HP  113.45704048261173  175.55438108352465  160.08858529315577
  299  300  HP  24.966976987943323  40.61493410271599  80.56923080698904
  300  301  HP  90.72269485023072  140.76929479152  116.19893300002897
  301  302  HP  7.93607727243244  171.38601612654716  185.48497814394383
  302  303  HP  158.54511822785065  82.28140431923465  185.33710789366305
  303  304  HP  85.64648519533252  60.790874218500775  122.12892988135225
  304  305  HP  8.133924748195343  151.82102184467928  170.23896610845358
  305  306  HP  165.12352187940166  13.78966597714022  46.361240126439384
  306  307  HP  80.38678034950001  54.589352281004125  21.533646636011028
  307  308  HP  71.96164897111468  104.97483426600269  165.39804663933418
  308  309  HP  83.83174621492164  28.901535376210052  81.47864261361073
  309  310  HP  98.00238625534747  169.5678048232012  192.9898338167502
  310  311  HP  108.62334961073661  111.97350276339195  21.556361930054567
  311  312  HP  11.075713935979415  123.69083787034  49.047143207497726
  312  313  HP  117.16338646272253  199.2623562691337  80.40440194758062
  313  314  HP  26.387958838385405  38.94292811125408  21.989549654970197
  314  315  HP  93.56557673179087  56.09427937449656  99.93217363565063
  315  316  HP  53.56890569432331  56.71985305389602  112.01518500096606
  316  317  HP  120.65281354419221  170.2476994745297  79.05129064180096
  317  318  HP  180.01699442153415  149.16291376579048  76.7219511815357
  318  319  HP  162.53895704529663  150.99479115727348  58.157490772423095
  319  320  HP  2.8468022094712886  101.2295070345284  158.27887674021076
  320  321  HP  162.22047769380467  97.58765315062763  149.38023439869565
  321  322  HP  129.27103671418325  38.76535117922657  24.581290991918948
  322  323  HP  52.7039866161586  92.09640673128744  97.53793874613731
  323  324  HP  19.78513891141709  64.90546118659995  56.80976454701916
  324  325  HP  69.14636958469367  148.63010731935165  32.68523401954815
  325  326  HP  18.04772830379433  129.58082326697965  51.35264121454202
  326  327  HP  165.77234955515374  186.0849556809609  189.69522797310648
  327  328  HP  181.64113569710568  40.3363607576765  28.736176365666367
  328  329  HP  97.3722424633882  60.913024163441506  137.42896202913647
  329  330  HP  102.25527507406676  94.6039143300418  12.057322085096667
  330  331  HP  4.1822616669688895  137.15647023946434  44.585958692385134
  331  332  HP  136.05413934661624  161.60270865248404  120.08703695685705
  332  333  HP  50.00792003268555  132.73943007903023  7.291115116533575
  333  334  HP  16.800718762645992  85.87406147740802  146.76069240552675
  334  335  HP  74.93787583464986  75.1156861870388  23.97137366904363
  335  336  HP  129.79276208503447  153.73325488369957  69.96534534140864
  336  337  HP  39.01935273369854  47.07867380473048  192.87408202163272
  337  338  HP  49.906270643356265  113.2724072452373  33.07420343181131
  338  339  HP  186.39824154356558  192.21285539304765  64.25567500919318
  339  340  HP  129.6713226684118  126.26518127874331  74.98789646006247
  340  341  HP  18.664460239506585  111.07755584641066  187.84485160141327
  341  342  HP  2.9390998620556497  62.0699193052209  12.231974418534385
  342  343  HP  198.2827031684214  129.40127509506704  35.67002085728295
  343  344  HP  42.643517366954065  175.05055928784577  88.00646778699016
  344  345  HP  8.278473100625948  108.7199160514936  175.04197273993225
  345  346  HP  138.85047954222708  125.21529471554888  159.78304637290321
  346  347  HP  164.205354906322  158.01000765662744  62.338688896884186
  347  348  HP  98.1611814801963  151.5413603173646  56.52725801550715
  348  349  HP  126.5964527379386  32.05183249970005  108.1617866640959
  349  350  HP  124.04007033349099  22.78607352528328  15.85089088714222
  350  351  HP  1.263695866280523  50.03025445405842  156.1793398973131
  351  352  HP  73.72094279759014  15.701959498879292  62.77952106460498
  352  353  HP  62.58387506020255  79.88547861866815  68.40467101248619
  353  354  HP  45.179532768229436  29.294672705007784  10.788329016196375
  354  355  HP  35.54041036921556  21.605379924080005  94.88583009621934
  355  356  HP  22.700698404143303  53.68116131246823  129.25936118186507
  356  357  HP  78.49245067870237  165.47747774245758  135.39755166376085
  357  358  HP  187.61676339537289  79.03694907504712  114.80576123674476
  358  359  HP  114.11709080591557  89.43296356961264  60.29305866182797
  359  360  HP  99.70662954825977  101.45976631409115  57.285615303978155
  360  361  HP  71.09040308152785  93.20312070350813  37.62638746576954
  361  362  HP  89.36645720457508  85.68746459234542  140.84356599008942
  362  363  HP  150.6691456372671  126.9791739850624  181.8350328706111
  363  364  HP  46.68444592258827  15.230022320986535  152.48718652486465
  364  365  HP  85.871157285181  189.64215634731832  178.5646456277349
  365  366  HP  51.8542989082059  178.61955354928045  116.94418406297025
  366  367  HP  181.33671032764582  176.32661991689608  71.39418548546502
  367  368  HP  136.69411628626992  92.41727748510267  184.54072108231935
  368  369  HP  91.56376243561806  27.572834767489375  150.14554910206115
  369  370  HP  179.1973862853284  157.58517250773718  66.74402758796718
  370  371  HP  37.40655572734393  99.38022798125303  62.36827423771545
  371  372  HP  171.7205067471768  126.0788766407122  137.70046438502897
  372  373  HP  43.53223770193757  27.93956270180955  167.7053771046249
  373  374  HP  144.7419712896213  83.87967081548626  6.418495256905987
  374  375  HP  24.751015295361476  44.035204456106584  147.5781362778583
  375  376  HP  4.313296962902102  172.17406254172133  122.88683256771439
  376  377  HP  52.5707492196956  163.42905291767775  29.2577939555154
  377  378  HP  40.33937118836075  161.00332848182478  113.48329191990945
  378  379  HP  35.40086688088624  197.7392214588524  180.77501139139534
  379  380  HP  197.01864332386953  70.92880192150264  51.25410450861645
  380  381  HP  111.11612205953514  4.484285730316628  98.65470594819496
  381  382  HP  8.04312399989604  56.149969782472176  173.97399878443727
  382  383  HP  129.38501481366643  43.59988306304783  151.64657834836873
  383  384  HP  146.40163050765406  146.63202873817247  11.185015938828059
  384  385  HP  8.21130644786705  144.15178139755832  78.91390767726956
  385  386  HP  78.93912017548419  152.33196859271217  75.65167269558206
  386  387  HP  165.53223654333058  39.58478383014503  142.55238746803533
  387  388  HP  146.98699066438067  146.05603908938488  98.63782554986076
  388  389  HP  155.21561949727888  59.726705635051694  129.68625010659122
  389  390  HP  119.11407476527425  71.01566129536306  58.68859067663441
  390  391  HP  115.95920323935631  81.31283251124984  179.7979752598347
  391  392  HP  103.23929839222271  111.84995408450635  166.9865316606461
  392  393  HP  117.4114953341271  124.21186892208634  44.939478985637415
  393  394  HP  137.45398366499194  51.024323441097465  89.34238122179896
  394  395  HP  104.23888936000047  119.41063876704344  131.22869987629716
  395  396  HP  84.94846280731917  147.4083366614353  93.01957708825913
  396  397  HP  114.31228225522472  144.33291241832833  43.482749255857314
  397  398  HP  195.6919876457749  193.68509174355617  172.55046787102802
  398  399  HP  60.60029880914628  93.43623890639124  84.2492461768104
  399  400  HP  89.93084165095561  38.67950016368247  132.52043659369025
  400  401  HP  3.137041499808779  31.73569016534421  60.106967238359154
  401  402  HP  85.09850368604042  66.0016954638597  85.73500501371643
  402  403  HP  32.116546680612636  81.29956635782585  3.0025065929764727
  403  404  HP  137.80942404375708  46.58166297795998  8.18759823361097
  404  405  HP  198.82765642954158  28.07401292432441  98.78199946710807
  405  406  HP  65.60997901203925  93.39489241403317  144.93267413309593
  406  407  HP  87.06061371956253  139.55088954792805  97.60401478745327
  407  408  HP  107.85961382193967  52.735510004680705  52.703151293022586
  408  409  HP  60.48617350609808  52.28280780367491  133.68041495587747