# Initialisation file of the particles

2000  atoms
0  bonds
0  angles
0  dihedrals

1  atom types
0  bond types
0  angle types
0  dihedral types

0.0000   200.0000 xlo xhi 
0.0000   200.0000 ylo yhi 
0.0000   200.0000 zlo zhi

Atom Type Labels

1    HP

Masses

1    1.00 

Atoms

  1  2  HP  37.77670041145284  144.1924827504965  91.88246533940759
  2  3  HP  95.93267543934938  44.23504976240111  36.961879335560035
  3  4  HP  84.00920521494804  109.6593105398431  106.88097090721259
  4  5  HP  23.59104540218837  126.90735732381889  118.38377168784429
  5  6  HP  50.15788538979529  4.902003232134722  120.39207954268866
  6  7  HP  174.65838955558752  71.51368204982751  33.00518899327738
  7  8  HP  1.6193257618140278  75.1266812746036  115.50620585211986
  8  9  HP  17.709229018394556  27.223780664268006  31.240201238009256
  9  10  HP  74.54635839317557  71.97286807894552  90.21710282652775
  10  11  HP  38.405375390438245  121.84978705952628  197.79622041801775
  11  12  HP  71.27501303450315  110.06974825545915  11.69660850629748
  12  13  HP  3.2571294119009275  104.0195402189006  66.77849233807744
  13  14  HP  91.21089122298467  60.32013721148088  105.71404936731193
  14  15  HP  94.93338735160246  185.56454965682317  162.69993470967273
  15  16  HP  120.2829692011703  37.16886383959128  44.27988782205057
  16  17  HP  51.9894780629647  3.079701532658441  21.172930719567674
  17  18  HP  182.14775763547837  164.68982706221962  100.75186114636823
  18  19  HP  14.511478340009521  102.590356423044  64.88638723213668
  19  20  HP  116.86448411799799  33.58168690747261  168.91250525691603
  20  21  HP  177.5038361506113  126.54486986983147  150.7031674335784
  21  22  HP  134.8625914834185  71.06496259495623  52.04723042885355
  22  23  HP  168.35936190342298  128.03310560730762  125.91363726730083
  23  24  HP  50.79747388629499  152.3533561185224  7.866168676815377
  24  25  HP  148.4895649801104  124.79184314937288  17.118396055037444
  25  26  HP  114.70406818833627  142.30688682516896  105.09323603324331
  26  27  HP  163.71230741759004  89.1338296433019  0.828524814547027
  27  28  HP  130.5945584240716  105.81257213395243  129.79809077738594
  28  29  HP  153.3560545764507  10.940883120907374  108.57889217730549
  29  30  HP  161.17312521433684  15.450107110572397  32.8190392008747
  30  31  HP  194.45943028825064  199.6224315922741  126.71248827750506
  31  32  HP  124.63208482494477  112.29917261072173  198.00313963988017
  32  33  HP  8.828877881277531  172.76885560899282  52.926194835970165
  33  34  HP  133.66452924435734  185.46136029168133  16.67600367741482
  34  35  HP  181.92611579979777  50.24059198304478  41.48018119703305
  35  36  HP  117.20551090842007  48.49144914046186  75.69669320476994
  36  37  HP  32.135727159594474  18.630361579196265  84.32439976976802
  37  38  HP  142.94174298958464  17.630574625451878  151.28881303712646
  38  39  HP  14.750589418763372  168.80860174490147  191.26333397916488
  39  40  HP  80.14131632271952  138.44844135917077  43.98113135756685
  40  41  HP  27.926810026836012  79.9605453230319  7.317133256117647
  41  42  HP  109.98209076252594  22.021282875499516  136.35712584778216
  42  43  HP  72.91266575555058  17.033167505562517  77.47156687473581
  43  44  HP  48.92050675889828  144.35767536056267  129.0964608546271
  44  45  HP  197.99104822980982  32.20402844386234  41.42810676133193
  45  46  HP  161.42169948818747  131.40279926285393  157.09328900217588
  46  47  HP  136.3641470593948  111.88543104491056  83.54542737062698
  47  48  HP  36.92334442663305  165.3885865901305  114.85899903053745
  48  49  HP  138.5392816314469  82.01644556771102  181.54053044480753
  49  50  HP  39.8864864090031  58.13177885422587  23.162113109310667
  50  51  HP  171.12256984277366  8.21608986422695  52.948334386354226
  51  52  HP  133.9534132050636  190.3237272013352  197.08861641313104
  52  53  HP  50.80743547562694  184.80510266630006  136.17019519622494
  53  54  HP  194.34923888034425  29.26819565825609  126.59388823929521
  54  55  HP  37.64226062246101  30.918443206355327  182.4965406837883
  55  56  HP  151.6652557737669  149.8209831251243  119.17455169650712
  56  57  HP  46.43896355934538  138.6211192483908  23.455941413090862
  57  58  HP  105.5207178864794  197.6889705995484  90.07382484453925
  58  59  HP  145.3461391587891  194.62166931290582  60.55576879783329
  59  60  HP  53.63238283276432  104.87820026708545  131.9180414215322
  60  61  HP  117.0240252227474  81.63014753334537  172.97207465515132
  61  62  HP  29.78479872523443  116.14176308840621  71.69344027093267
  62  63  HP  193.2456865213328  133.79069575323132  88.74913726221652
  63  64  HP  163.85257404826243  139.3515486422813  177.3262947400009
  64  65  HP  173.49182273804453  29.458353695145068  79.79280865496996
  65  66  HP  98.35924123080191  100.22681501818418  177.68043491653077
  66  67  HP  45.39990960867064  37.22815480997925  189.69658504816368
  67  68  HP  117.57482410562976  181.31289111887727  32.7022204105124
  68  69  HP  193.56908285310158  64.65933368121388  66.42904521748191
  69  70  HP  187.10195572770564  1.4640213803140734  36.38471708402899
  70  71  HP  115.95209127051469  100.26130898478054  125.37715260369848
  71  72  HP  70.04401709242775  167.74246661159268  192.00032584140283
  72  73  HP  45.22241642514759  107.67119269224644  120.17104777421466
  73  74  HP  178.0226456955849  89.51189131080524  185.9438749289687
  74  75  HP  164.5757417848228  14.705537864247752  116.10367100128445
  75  76  HP  137.9614779744415  67.79487570518057  3.542633468095846
  76  77  HP  188.99760211065123  68.74757475063001  5.9542747055218115
  77  78  HP  72.78592414469304  108.45712179210398  163.69621541609894
  78  79  HP  42.51941122687857  38.120156080890744  121.99298362900916
  79  80  HP  166.35557974364582  48.7057159583395  17.903184502075487
  80  81  HP  51.55042979597955  179.81700818706065  91.41920154510565
  81  82  HP  118.70253117068292  167.83254866135556  143.51759306006548
  82  83  HP  64.37327857616388  192.92624786979533  158.4664919184028
  83  84  HP  26.364870093853554  7.643300754236448  109.69666979187804
  84  85  HP  8.91551318392818  180.15820733332853  123.77333791087723
  85  86  HP  122.4561284884052  37.02364236042224  40.607121188731114
  86  87  HP  39.64070129929984  171.40195668062955  170.74985314381718
  87  88  HP  1.4432809645307465  71.43199766689447  7.802764918661875
  88  89  HP  109.12486330397553  108.34730997204282  21.465735936318907
  89  90  HP  78.78155106719977  92.37531106409742  143.61703492804233
  90  91  HP  127.08574947216174  193.2239398244578  41.57938352319337
  91  92  HP  73.91845447461725  82.63082238341248  136.73132784157914
  92  93  HP  132.22008106533067  163.96860098435766  49.23381855806379
  93  94  HP  30.737315806830033  1.4275552838085792  186.0816282414562
  94  95  HP  106.43440363501986  198.1386113890996  144.5831241204478
  95  96  HP  165.23862696527164  170.09585342082815  148.5545890415694
  96  97  HP  111.22245017022425  103.96343688086942  170.21570149587774
  97  98  HP  39.360313570646376  197.02634054487623  155.0892753306366
  98  99  HP  69.67919711479036  151.842953937454  138.48568643807397
  99  100  HP  27.37958087541934  156.79717475985925  146.7788778426765
  100  101  HP  123.88075417002004  32.19252496911103  111.97202495324927
  101  102  HP  53.026037574891795  127.07121312265883  89.07770329316571
  102  103  HP  62.45495989104957  47.4217970690838  182.67611611747927
  103  104  HP  77.07871410481096  102.604124910274  4.13946117647912
  104  105  HP  64.35450351010084  159.61950443135814  162.10004056413652
  105  106  HP  75.02038239858473  197.20297491290165  45.89328427025332
  106  107  HP  171.6456451294092  128.12072485656458  94.80341236711803
  107  108  HP  37.304722911040415  130.07469056015987  142.13099223726599
  108  109  HP  148.7824167337011  17.97994647099841  137.90620346408517
  109  110  HP  196.2466107407148  92.45194034765572  35.01098279076385
  110  111  HP  38.56798291823213  179.73800961684555  49.83345444300511
  111  112  HP  88.69726530436681  141.64809804041178  195.5055295754321
  112  113  HP  46.56611600337377  44.33743247018367  16.547721769728163
  113  114  HP  45.465538132567595  22.428635883502324  56.86360131858488
  114  115  HP  3.757951346870092  75.5610205688335  87.85135467645443
  115  116  HP  73.82980143584008  1.1687045355351255  49.072315525660336
  116  117  HP  83.04137180995015  125.76648322593617  99.79617198125594
  117  118  HP  80.10004273535061  89.62482021243608  80.39964128077568
  118  119  HP  106.41234062460987  87.24090300658322  31.962184279915483
  119  120  HP  148.46450027046745  31.853231268591674  9.292868203244264
  120  121  HP  138.87234619109265  21.438990197536057  88.41463394283855
  121  122  HP  6.329495187414369  121.23048688309514  27.070810573663493
  122  123  HP  90.93589978764551  80.95131533921351  53.97242840837031
  123  124  HP  75.99313186761034  98.49109892866157  187.68168675530274
  124  125  HP  12.706524791466123  140.1725519625431  29.268384077285027
  125  126  HP  58.62725216009403  32.45319565420648  174.88618640584917
  126  127  HP  77.0309173649907  96.42175366109309  72.25175571910505
  127  128  HP  32.710963924085455  54.02064564464932  101.3304113579342
  128  129  HP  7.592718385425656  34.080716169389326  29.8451781301879
  129  130  HP  115.09957922607241  87.4377555941076  175.5331903990462
  130  131  HP  119.37708691102983  145.13940676791316  42.53565297863751
  131  132  HP  131.4624532112997  7.333871092848154  14.942605897726292
  132  133  HP  183.95217389635275  148.34569067445565  102.16974745965722
  133  134  HP  18.661053056020414  177.2345026515641  8.988398112687745
  134  135  HP  106.57598829403648  102.1601983821794  104.71826823993821
  135  136  HP  50.48364337281919  57.02001988267287  41.45812490943488
  136  137  HP  43.67214526259444  156.4399387737705  129.2315508863239
  137  138  HP  29.302690172517142  113.66152573414648  88.46923728496978
  138  139  HP  149.5624921778794  119.89889028027947  186.65151418781434
  139  140  HP  71.44181807538203  184.5679020893868  161.3494360391327
  140  141  HP  175.31470440447313  145.0277579993917  79.44321771481424
  141  142  HP  182.73764654004526  116.91033075337967  119.10575381815951
  142  143  HP  16.6635503989921  133.12593599418014  61.31400793225508
  143  144  HP  110.07465895826549  191.60297016514093  80.2963435267144
  144  145  HP  187.59484661182913  73.30545427807  29.5996080726326
  145  146  HP  141.45712996710517  46.08355092265928  131.09886625113995
  146  147  HP  11.449918208087384  16.415378811348468  164.69308704394962
  147  148  HP  48.76526519950484  151.2908547552555  110.56629259047202
  148  149  HP  129.57649088204172  153.84832238075631  47.466694316181936
  149  150  HP  116.73579238928606  142.01995238623903  28.844836033430266
  150  151  HP  191.62862665277137  36.178988785364275  107.65805942819549
  151  152  HP  190.06732978861623  52.64510873985388  75.7884496827614
  152  153  HP  197.5758534579974  165.28431996749063  186.0126946520869
  153  154  HP  175.19491799768934  139.8922760992648  153.8231477220711
  154  155  HP  161.18690776142287  27.33035522539833  83.05774187215327
  155  156  HP  89.74813796126581  146.98114109304703  178.4460955194519
  156  157  HP  11.238870993741035  169.0486794184268  90.6219675340143
  157  158  HP  89.6051540565249  28.69937948179768  133.05954429287635
  158  159  HP  77.33613510825535  169.65010678779802  95.58087584997538
  159  160  HP  109.75386749262832  41.581160806974225  116.86318037108127
  160  161  HP  70.45949055858574  159.14424525724854  159.74802334050665
  161  162  HP  168.1858073182782  22.424388511989424  79.01936458405197
  162  163  HP  14.064460032100069  129.71478224843372  15.475967663510314
  163  164  HP  47.52579579634191  71.97788707886326  48.232871567914046
  164  165  HP  166.76632423901293  35.6101311165697  147.96015272634074
  165  166  HP  47.5639129793773  9.390263750651084  78.68972716277538
  166  167  HP  83.32877327266664  100.73590739772304  20.243944319567753
  167  168  HP  105.6303248915928  76.38778609839247  171.28585684913588
  168  169  HP  138.108479057156  18.466726243049834  175.71603074456223
  169  170  HP  0.9003589476585416  182.85834802329722  51.61531961885055
  170  171  HP  67.39814346982875  188.16782755361993  191.84467835745343
  171  172  HP  68.07601651730579  85.30894322789042  128.52263663032107
  172  173  HP  101.21614907233867  188.42199839712384  81.77668131839701
  173  174  HP  147.6102404294771  14.936772019867872  86.57369465846972
  174  175  HP  43.46422047894445  19.155781841916486  190.71956573521229
  175  176  HP  89.61165224633807  79.56274315816432  192.78259094585226
  176  177  HP  147.7468799181775  82.5771037165441  191.2838380117509
  177  178  HP  123.92542755546654  120.20937185335723  44.93030473767317
  178  179  HP  33.10905804231463  147.8365388823799  146.68231121362376
  179  180  HP  25.97361976352257  21.24699634578533  115.91475726709986
  180  181  HP  140.41643580588445  164.74618106088855  12.655738485604239
  181  182  HP  199.52847906761139  152.98623059384343  102.8302282623827
  182  183  HP  193.8335948752639  154.93054773409125  27.84775333204468
  183  184  HP  124.24072126963193  135.22927528991278  55.42924196385015
  184  185  HP  142.0918133532054  53.99764034231751  77.64434585382847
  185  186  HP  180.4158776802068  146.70393876749662  148.51655493282368
  186  187  HP  21.07074107392828  58.930381546017685  103.59814659968778
  187  188  HP  86.76307056815911  17.745656212731475  45.520377616118026
  188  189  HP  146.93877710849821  149.7024112417147  94.89959904424279
  189  190  HP  6.30614589228744  121.700285023656  78.9663494321146
  190  191  HP  76.73418061161097  146.639382521053  53.826846911014535
  191  192  HP  87.42986366545658  183.9848680839601  42.27499926196634
  192  193  HP  184.45433093191798  159.33833531991442  49.43518665110713
  193  194  HP  123.10312486416154  31.334146868251555  178.3042526910329
  194  195  HP  187.8448771717473  150.75198241705792  62.32619467872951
  195  196  HP  73.40063700786278  140.00988202308685  71.35652617743476
  196  197  HP  63.70585328184002  57.19006361668748  111.09876384909252
  197  198  HP  11.874861646638134  161.54495722513704  36.457069489184676
  198  199  HP  46.47404331618894  131.54843635961316  124.9965970889501
  199  200  HP  94.66044082877383  98.01542896461154  129.75945699911716
  200  201  HP  2.1315024624612766  74.361792249407  34.813160189707595
  201  202  HP  123.64317645559142  146.4497502978953  175.51711796411348
  202  203  HP  2.359317468529798  26.93206483626256  51.61221354073386
  203  204  HP  60.85026636768212  196.62641720575292  9.40638362354198
  204  205  HP  165.89214294352422  39.90387558070368  2.50738765764309
  205  206  HP  52.98884264419799  180.11368629188019  3.9274514563849783
  206  207  HP  9.157071335725187  114.73075967838471  26.428270641349695
  207  208  HP  85.2652467738849  16.12244544173198  175.69476823938518
  208  209  HP  96.86939525903611  182.6978073082366  187.2390859987057
  209  210  HP  158.74575167645224  192.60375731549058  127.95650233820123
  210  211  HP  20.260879337908033  156.13289824214527  186.7015642877893
  211  212  HP  85.60974780727435  127.11401376009736  116.14700027762012
  212  213  HP  162.860842799074  141.2175506308238  72.74587493140557
  213  214  HP  80.85063797232446  196.2111804080054  75.78828039947014
  214  215  HP  180.0072680896227  157.80071204106463  139.96590227583317
  215  216  HP  32.56064397577785  35.98282786093241  20.47142103901285
  216  217  HP  192.48376154189953  99.41665606154908  34.98248176757413
  217  218  HP  84.36147295387777  157.06256659503794  109.94600415108555
  218  219  HP  155.34763997989677  157.36350239990173  199.82391772981381
  219  220  HP  114.66464701536484  174.37164263726223  69.2609758010966
  220  221  HP  45.197180410572166  21.94084135631751  1.5035412755915134
  221  222  HP  184.74344359130473  175.8976424768896  165.37140539405354
  222  223  HP  131.57799934927567  177.96786802264543  137.74428473180788
  223  224  HP  99.55522734359997  119.4096207552169  171.59322877474915
  224  225  HP  160.12375300809285  76.34443848643026  79.57707236899627
  225  226  HP  96.48072844225959  118.01166945976371  146.67142730362045
  226  227  HP  188.66566470407693  165.48544938586085  73.99823108911797
  227  228  HP  126.3352782675884  10.427124002411103  70.19905015541765
  228  229  HP  13.71738102160165  49.85660225883808  106.16055694216577
  229  230  HP  168.2717156570658  170.4077100180136  114.00534191379714
  230  231  HP  151.1012315664497  160.10183382820858  16.129867813314892
  231  232  HP  70.14961505205004  3.0636320309501475  144.19769263927924
  232  233  HP  14.699561160823427  111.64218525570666  159.3840745725857
  233  234  HP  55.79669589053826  167.11212059737832  149.54889322016552
  234  235  HP  42.77651952975327  122.5426131257298  150.1927424544746
  235  236  HP  111.92940313989735  111.4782973317769  105.99210157854779
  236  237  HP  117.20552308655454  103.9296489101573  32.303678062057
  237  238  HP  36.32175959266761  133.03129821507852  29.00307097767001
  238  239  HP  76.03005927351718  131.5616138797015  126.9750792891644
  239  240  HP  49.72809716512494  152.13286837936374  186.81851544290467
  240  241  HP  174.9563286311364  60.760003129410634  34.82861529438777
  241  242  HP  168.09576842396268  6.968692759187012  85.32055798819138
  242  243  HP  57.04876663096514  179.324968527349  80.5622568080832
  243  244  HP  2.03174531884156  110.6452765970004  129.3693113249346
  244  245  HP  54.62961793374872  104.19218932303662  188.4734124829527
  245  246  HP  155.45740260641605  143.0630901306855  85.79359294175906
  246  247  HP  181.12191795809883  81.74139748610052  47.784672051313606
  247  248  HP  28.095184455450052  174.52389582576734  25.376600579905162
  248  249  HP  168.1558154352793  14.439261977095331  5.682100209909335
  249  250  HP  53.70280224215402  191.59464803406223  119.90627444774135
  250  251  HP  92.44195851382119  83.09451432374581  12.070919746902664
  251  252  HP  57.98905130630403  165.2836370334166  194.5605162319229
  252  253  HP  181.88049833404403  177.66107261040068  13.622895719229945
  253  254  HP  184.78313181077837  106.37869923497082  178.14023286000324
  254  255  HP  8.1935587784157  192.70325235873537  132.68934354363415
  255  256  HP  176.300041987896  176.92123256015896  116.42847686093137
  256  257  HP  159.67057597111878  88.10590465127079  164.95424305491403
  257  258  HP  40.99001303008978  119.67730739339967  145.65503596154787
  258  259  HP  49.98506080709231  70.09954204637125  110.99187924308542
  259  260  HP  24.02806319432176  124.07414610832905  27.94471084163337
  260  261  HP  60.205971663575355  95.54119377240133  106.0233568972944
  261  262  HP  152.93740209636744  138.34899189083563  150.24703049880242
  262  263  HP  170.00853175759212  102.3836104405048  146.6119759017189
  263  264  HP  91.81330294357441  162.95455224637624  155.74706190884913
  264  265  HP  53.69577796008207  65.93465712070805  73.2373887711092
  265  266  HP  34.538876854723945  19.411982851961017  69.70222808461773
  266  267  HP  95.54403066720516  120.2117874760181  26.516217729466952
  267  268  HP  125.28281922004021  47.41314175741158  10.899504098985059
  268  269  HP  198.8382562078229  120.81683559918892  121.6043375419323
  269  270  HP  194.09600584283248  191.98545291233776  178.64973102202117
  270  271  HP  188.59333720175823  138.87015622073557  100.59151526227177
  271  272  HP  44.04210104327346  164.92981613213854  101.10077070607029
  272  273  HP  158.6114983318912  55.36832922164558  168.63889500670786
  273  274  HP  86.07980549430707  47.330614565885945  188.03962862486853
  274  275  HP  122.31571504720739  183.51290632972368  108.32627086092288
  275  276  HP  39.254070579524615  142.88603038012198  182.30895122154524
  276  277  HP  162.95188173869468  168.5180153211624  45.38645976399201
  277  278  HP  171.15485616720056  21.778496179314665  76.21332115278838
  278  279  HP  27.60829247417731  42.40546627151352  191.39727966513772
  279  280  HP  110.19504154513275  151.31157544234364  57.305597259777244
  280  281  HP  54.26415805295108  61.820004013353305  62.0712241289628
  281  282  HP  147.36833424965857  33.705728516739676  148.50432907628323
  282  283  HP  142.76066132140878  66.66155494959678  41.12064022557305
  283  284  HP  100.49204295884073  42.87764155727043  32.14046704390694
  284  285  HP  167.5161054147474  131.93912025559285  112.54381479831399
  285  286  HP  140.83066974747496  167.1049575566897  97.72259299752749
  286  287  HP  164.45971786913913  47.55271280603785  76.31786812480212
  287  288  HP  189.26493396519217  22.554923800847938  108.5439306629026
  288  289  HP  184.51751181501643  188.44298732035924  176.24221511180264
  289  290  HP  45.63709291207554  43.21670338054595  198.92320114867675
  290  291  HP  76.05454096783694  125.23511567089957  137.06985695296626
  291  292  HP  118.61068657891293  69.11860854361514  146.83926500915652
  292  293  HP  33.93968112126775  173.8544915891787  28.056569438868472
  293  294  HP  144.5027591616443  9.701501651474542  99.19954752977647
  294  295  HP  116.0092980436295  118.04815495784611  135.31915205841028
  295  296  HP  30.806004106337625  121.59264221168948  168.26971567305785
  296  297  HP  10.703354831344836  187.16879208950544  188.15761100925664
  297  298  HP  25.585583501689957  172.60347355520645  14.680756454774446
  298  299  HP  15.785384204511255  9.176917798693607  170.1317344234377
  299  300  HP  152.0207541056603  30.495726034077375  113.82188537577646
  300  301  HP  28.085582900102303  72.43180671811496  189.6038498241254
  301  302  HP  144.295351996392  93.96632295994269  173.08415476479166
  302  303  HP  71.15613648985651  99.35945723069757  129.56092972544738
  303  304  HP  193.1904471335547  163.94696203750246  192.1304268625046
  304  305  HP  43.10886156764564  63.008443109996094  65.8174316795613
  305  306  HP  143.5524296146558  43.106452812363585  54.99254778450333
  306  307  HP  37.87513017965225  113.14461335296903  38.012098801107406
  307  308  HP  194.7785568039112  48.94476087803285  32.43032258330063
  308  309  HP  50.51720285838943  189.11990374399653  8.290223757419412
  309  310  HP  109.52146901124225  12.394661250831707  150.60772606349585
  310  311  HP  98.05348189854391  138.4801299788643  45.60392672319067
  311  312  HP  87.37754780821356  11.006519554879567  99.12003669137688
  312  313  HP  96.47989712201456  62.17234406238863  1.0325763928455078
  313  314  HP  51.46639171446785  35.82815531842309  155.83726013335092
  314  315  HP  107.69414420434151  145.61913872029743  45.0932495760304
  315  316  HP  134.0402429163791  42.4065927795865  96.50058831342064
  316  317  HP  87.87368172095604  198.2524844597944  111.82558756308953
  317  318  HP  53.74883141300582  142.63141245705197  192.60394989545347
  318  319  HP  20.222188765222192  55.28077351592231  81.52198433258306
  319  320  HP  148.49972140945144  88.77210387537382  156.37590460203623
  320  321  HP  147.5287390471789  169.55701967856248  48.89142373939595
  321  322  HP  14.442014491794763  36.39538648789018  35.35990699774707
  322  323  HP  41.15501103455688  189.98155626496725  129.6584906332407
  323  324  HP  175.57921558711956  84.4655585366725  67.50597481541804
  324  325  HP  137.2744151054133  86.27435185623122  181.19959853661115
  325  326  HP  74.88411529163261  6.547726757778127  139.70122872553517
  326  327  HP  143.416723411011  151.8480280524994  150.185772402657
  327  328  HP  152.6550886209127  141.65978892766128  178.16466380515965
  328  329  HP  91.7254726101665  81.85841498208318  3.863869913770346
  329  330  HP  40.19541730739873  174.6280025549898  3.2858744071940116
  330  331  HP  118.63053877693974  61.1882500089117  117.33904632422076
  331  332  HP  57.18251200048334  115.48153091833733  180.85162546247383
  332  333  HP  141.69423465332156  112.75955417778123  79.05619901043136
  333  334  HP  40.57509828069481  107.28565864334702  79.6388360547896
  334  335  HP  36.95739825445157  190.83101252208328  35.897668245220025
  335  336  HP  153.26956368870222  140.24783311166203  126.9745105831567
  336  337  HP  127.967017758457  58.068709716727106  148.22279861409265
  337  338  HP  117.98555445008847  182.79878063307524  103.730521271501
  338  339  HP  85.35604055354888  138.2241511819119  126.1633675112241
  339  340  HP  2.220306746295919  19.15831335985341  37.18976756305714
  340  341  HP  152.4326723781899  176.0946812357369  191.21981580794807
  341  342  HP  62.55092097535893  106.80667759234738  72.57359524520727
  342  343  HP  113.30341377926119  15.288860126203986  33.98759376381928
  343  344  HP  67.77746068855936  170.44912416638513  94.99932135487875
  344  345  HP  173.45067795878862  79.01709645274838  169.06910688193926
  345  346  HP  65.3115900302228  142.94591510111195  135.00345317347384
  346  347  HP  170.40854771275542  185.0019056826365  32.40794737179373
  347  348  HP  29.730473746667773  17.97838106393741  116.31393798231751
  348  349  HP  65.37680852242251  50.910547946282556  45.67623817314117
  349  350  HP  82.20982816660127  120.90350971181086  51.30693409063822
  350  351  HP  76.76709282296777  34.980677342997254  196.5956821398408
  351  352  HP  118.23882262952094  186.85787083209368  87.5297081156736
  352  353  HP  90.8940915875205  58.4424677028841  158.21358382668194
  353  354  HP  93.28398612758251  166.1779003879632  61.0591362989694
  354  355  HP  166.25134429948346  134.09855921190155  99.08848688115862
  355  356  HP  155.47677546984187  195.2899056033832  16.12218702056809
  356  357  HP  24.226267694741345  87.9754311495264  141.5689810896763
  357  358  HP  153.71488625766722  183.0454181193582  177.27020327185832
  358  359  HP  131.83528419555276  47.15869736672895  159.99583627769937
  359  360  HP  141.34638980508126  134.4702992407645  193.13306127741066
  360  361  HP  103.38920723346521  69.47580137276222  34.50983877166591
  361  362  HP  17.249772004459384  126.87066115488807  24.302306438651744
  362  363  HP  56.95693600189391  105.55175956143195  100.15688644877135
  363  364  HP  138.0609823676673  128.91142324786065  31.207764612719767
  364  365  HP  88.0506871671053  193.20478065853638  148.30031804651233
  365  366  HP  80.69365577207881  128.78203138410612  163.9986452847811
  366  367  HP  172.9322776917722  38.43417630899584  165.59241934289574
  367  368  HP  63.1372795052517  106.91110450949317  7.67460893326275
  368  369  HP  124.23472991389501  20.67221199471849  170.10715167270604
  369  370  HP  57.520064759685496  178.59914688018475  192.23806095090907
  370  371  HP  175.1250518727176  30.314728897450106  38.53229154376001
  371  372  HP  198.5622212924405  105.35026834994746  68.8055552573491
  372  373  HP  110.7623433871612  119.01634109694487  39.46390994547859
  373  374  HP  58.98752267900564  179.67204573837634  59.845258844201375
  374  375  HP  12.906022363035685  119.55713228417304  34.08331842547252
  375  376  HP  63.82653955629009  160.2870035218855  96.46703945896962
  376  377  HP  49.27724666289839  135.35086353445365  49.00445322048588
  377  378  HP  138.87425284757495  191.0847204207442  171.09313048538513
  378  379  HP  55.177975918183854  132.19875656036243  120.5006845924087
  379  380  HP  158.29673368542288  152.70023227310557  13.476624145905735
  380  381  HP  103.38437832762814  76.0786848645721  70.29761848846046
  381  382  HP  110.81903105707092  80.66252265451297  178.7233183595718
  382  383  HP  155.3591224432569  19.343970824636457  12.64961921255039
  383  384  HP  128.3214142397413  72.12048354070608  28.599925563636685
  384  385  HP  164.78784529911428  2.333644718490957  85.97145283597581
  385  386  HP  50.309699797182695  76.03587594600624  68.80794737216948
  386  387  HP  132.9130999149851  165.68109215126782  61.82054408175834
  387  388  HP  165.0443554179112  143.8269826635631  47.46135962024805
  388  389  HP  129.613027322855  105.34709465534702  193.04731902831068
  389  390  HP  161.88477375581496  191.58286451785781  87.1218343462878
  390  391  HP  166.26524842020396  129.6601571118926  151.49633954706906
  391  392  HP  148.18512129522614  61.57015699711437  16.32332005428627
  392  393  HP  116.96456113060279  108.48723259678381  121.01047810539207
  393  394  HP  198.32249652408805  112.86329714177144  11.465910978381322
  394  395  HP  30.762953157077355  8.954781881003072  58.51734346644448
  395  396  HP  9.852288488933647  127.74663845609699  136.44436750795654
  396  397  HP  181.17033595028118  41.65681361550575  117.04622026840966
  397  398  HP  137.71452551861594  138.31550181510536  195.83074637528944
  398  399  HP  96.38724137125097  19.766831195727175  139.86243112740925
  399  400  HP  54.655238413047044  40.612782826123265  104.46997996854377
  400  401  HP  75.25136033764237  15.331062236918026  164.19734015542195
  401  402  HP  4.794014013174652  50.8134021744991  103.65538505917897
  402  403  HP  149.9025573623533  131.26093428066397  42.57924975534033
  403  404  HP  89.78854898438395  174.40688525718892  191.43884206590664
  404  405  HP  47.281822073031  112.88765464208706  67.47716236680074
  405  406  HP  148.19058596920402  86.71108912862798  149.1155466323225
  406  407  HP  108.7050110788629  91.68526556233066  55.351290181022605
  407  408  HP  94.8788115247422  126.20793451013567  0.29214911442110303
  408  409  HP  171.21034693221944  72.45139732621332  86.77354020449386