# Initialisation file of the particles

10000  atoms
0  bonds
0  angles
0  dihedrals

1  atom types
0  bond types
0  angle types
0  dihedral types

0.0000   200.0000 xlo xhi 
0.0000   200.0000 ylo yhi 
0.0000   200.0000 zlo zhi

Atom Type Labels

1    HP

Masses

1    1.00 

Atoms

  1  2  HP  125.69738918187758  115.62820167583286  21.370627442534573
  2  3  HP  104.02601968588665  43.35002162347783  29.033220516860368
  3  4  HP  114.10883288389991  146.26262979204142  11.306423315549852
  4  5  HP  1.0821955897373225  119.71370734010924  139.54050376383236
  5  6  HP  65.1533466312032  140.5092526891752  192.0263204283781
  6  7  HP  19.297730138908207  144.8212468296036  13.585071203946232
  7  8  HP  153.72732766458032  6.350094928768457  166.08681225332225
  8  9  HP  133.4367871767294  156.37358677187177  113.1880509624361
  9  10  HP  37.19697258153065  12.52540345295552  45.08934136299161
  10  11  HP  161.33194434210057  142.4389795104065  147.42672377537366
  11  12  HP  179.71981225027307  131.83943503161262  183.17317500603377
  12  13  HP  108.55489986994269  195.65496342107295  162.5500989446801
  13  14  HP  77.43084349301729  22.41239542409148  12.579215335799997
  14  15  HP  14.745667059585754  49.02142718508908  87.9007287817523
  15  16  HP  58.650916327281436  158.1608366915845  132.09747718006506
  16  17  HP  130.35229990500505  7.530972325223018  122.50945677529226
  17  18  HP  86.23914596885662  160.01462300605405  189.28442702726647
  18  19  HP  139.44462922998972  16.58756930380023  172.11092110930676
  19  20  HP  175.21593286644662  167.72611619782975  60.899207157309654
  20  21  HP  195.2331129956266  85.9100523286459  199.0309672299602
  21  22  HP  185.2255243986161  37.63313486554489  81.50044388139024
  22  23  HP  29.807317963988655  53.136782056967256  136.40741183253633
  23  24  HP  140.22788776503887  164.86577979263095  169.0156206620901
  24  25  HP  127.57813588349248  0.07084026203862948  26.398009699841317
  25  26  HP  139.7444956725635  46.749417146430886  37.01749913963608
  26  27  HP  189.9219737782319  72.33243120150632  23.69419123495218
  27  28  HP  66.28669103753407  172.87653616319358  13.029663416923087
  28  29  HP  69.75615780677941  141.51765573526066  155.1758717974808
  29  30  HP  54.431538511529595  114.10677441552141  118.26857369787764
  30  31  HP  151.5778474351303  93.76057016125753  18.576351439987103
  31  32  HP  125.58937617341105  164.9155880131191  97.85850864311251
  32  33  HP  4.316302226581392  150.4989413698071  25.180840189049135
  33  34  HP  87.01208607409268  132.4052941487841  66.4119140868719
  34  35  HP  167.43471999618612  43.092944772359765  95.49772713517419
  35  36  HP  36.500875516551076  185.27269045744254  2.7572636397978467
  36  37  HP  150.3941736128675  90.5964809648273  108.50606248718331
  37  38  HP  109.05338545875185  125.15820653862416  128.96284887429056
  38  39  HP  23.30345697241878  43.41557116025208  124.01484822930055
  39  40  HP  57.27431971513812  174.05124662031417  113.81595569820604
  40  41  HP  127.25813197117175  66.20856990443865  125.73246309655124
  41  42  HP  13.547477147910847  128.97892495179585  170.15785958977492
  42  43  HP  149.88896592468964  65.36174031004407  78.00489767909713
  43  44  HP  13.889376666926134  68.97130192960894  132.95409746045135
  44  45  HP  0.5726706199373766  158.38788986185472  176.91678817158856
  45  46  HP  87.83661017753666  95.28223517549313  169.55888960864624
  46  47  HP  5.081266923676009  14.727354536151683  24.089969397956846
  47  48  HP  157.30602724531298  34.967475943701174  143.79516493992136
  48  49  HP  115.24497460345657  85.23628352583776  107.31744040135389
  49  50  HP  131.6625177506134  132.7124488726372  84.31751432750502
  50  51  HP  130.5139070097427  48.78656079971147  39.35794673792159
  51  52  HP  130.26011140382175  143.33225197047358  99.25676721495616
  52  53  HP  102.77523416560545  67.10779284897777  37.45310328574305
  53  54  HP  85.00275186887293  148.39129778614316  145.94997577354562
  54  55  HP  52.63861476579941  132.4185537985753  137.92617341603508
  55  56  HP  123.53081067556869  145.9462408465088  22.507287830281108
  56  57  HP  38.46304408908241  167.88161198903794  114.64966705061353
  57  58  HP  130.88527898352174  36.55835364335116  148.02880281244626
  58  59  HP  96.97482954110328  181.18300057651854  153.7523671286181
  59  60  HP  6.987680130120633  99.06100885352744  9.248059200914982
  60  61  HP  143.5211083110781  178.07540544988655  110.35703390361533
  61  62  HP  20.49833699291348  57.412147801826194  102.95947149141773
  62  63  HP  31.90001320463032  21.430612500561175  74.2989981528718
  63  64  HP  109.49728958618508  126.03652381700161  132.64450830973976
  64  65  HP  103.11147173919426  144.60139718575064  114.09540718936651
  65  66  HP  151.04538570196914  127.55586469058696  179.12214321661796
  66  67  HP  50.81400076023399  42.586733227884864  153.51239551435344
  67  68  HP  36.27859618841667  192.20854325084537  125.18814987828104
  68  69  HP  193.61180826061118  29.820249414459667  190.641090323078
  69  70  HP  162.12211813938842  24.480697643469583  159.69509035561694
  70  71  HP  123.01165407512454  142.60153863803865  54.34432769996529
  71  72  HP  25.475016714261468  64.5147515219974  142.01106158318174
  72  73  HP  89.01260443934254  114.71300905460984  87.97610362406387
  73  74  HP  24.747630269243647  154.25737818814724  188.9985674958194
  74  75  HP  115.56315588291301  28.277816861857353  65.71774063223867
  75  76  HP  39.0686446748383  56.79367010330334  114.5030524923001
  76  77  HP  95.86147376057042  57.522124780873774  174.89092791662205
  77  78  HP  6.337887438254897  139.5915866856314  158.8975243284275
  78  79  HP  108.00188917803627  173.52892568673306  148.18077711139034
  79  80  HP  103.94274398645848  27.29188042819186  53.768954057852184
  80  81  HP  55.51070385145878  17.954266830535538  111.44763147204608
  81  82  HP  85.53038812220322  184.27909612312794  31.19582189653549
  82  83  HP  146.30109813001974  59.31948740418809  50.97524350804103
  83  84  HP  36.34229496474446  58.140572071339314  137.89610354960652
  84  85  HP  3.4517116419324534  115.29950582042372  126.66342477246843
  85  86  HP  118.18276901681404  121.90843476855362  95.75384221735399
  86  87  HP  81.48693091676216  7.455276711952852  177.14616191489043
  87  88  HP  105.76439295177755  5.2012684915274665  48.737622591819886
  88  89  HP  127.8624322020652  164.22916327184407  149.06438852198184
  89  90  HP  166.89148830931387  7.585832159315298  125.8014408729267
  90  91  HP  142.52191524416543  8.290733404742557  13.951646782561822
  91  92  HP  80.92923920195577  134.452342938992  146.29632805231284
  92  93  HP  120.59035512890593  151.09219422265997  71.24555838421429
  93  94  HP  123.20850132650727  60.96911634932658  5.862572612407835
  94  95  HP  73.1873720209255  7.9690893559860365  87.07521974601815
  95  96  HP  80.63535118555183  58.08243034273046  107.76733918146262
  96  97  HP  105.822246975009  184.15846046029026  96.40732321038851
  97  98  HP  191.76241001854802  159.7564011113472  159.45557666280232
  98  99  HP  62.24538975558651  104.26013960460747  56.886977754517545
  99  100  HP  47.82043224349963  78.49690409537651  16.534281905449568
  100  101  HP  138.15836378482433  56.157678822731015  40.483312207767554
  101  102  HP  29.060536630603174  72.45068141918638  185.9019495972001
  102  103  HP  75.18730949775099  99.80964832423187  37.66225818656692
  103  104  HP  125.39669558855813  139.53008546505217  102.47632280577483
  104  105  HP  71.92802204443855  102.71049263413113  90.41581783058379
  105  106  HP  9.870383547905393  23.007158074115885  53.11821360299114
  106  107  HP  148.24809297767493  135.97530661780763  146.86456139955942
  107  108  HP  34.41079119239336  126.9097607943355  96.71595520734417
  108  109  HP  195.99368032267853  5.353677355499897  120.59552932269153
  109  110  HP  64.74863851806371  16.693709252206013  183.1253465432373
  110  111  HP  112.77193904012364  42.43290861786346  74.67318332620982
  111  112  HP  148.13958632967896  165.48373152239995  54.76441246731771
  112  113  HP  60.06540462495846  48.223638684620695  14.21307388292905
  113  114  HP  180.0479962900861  6.701366044150703  128.93775027919324
  114  115  HP  160.9773500449632  65.12338782684193  30.49986301156984
  115  116  HP  59.394175719501455  20.102201859407852  3.409964675123045
  116  117  HP  40.02565346562581  178.31378478171763  133.94883000535546
  117  118  HP  63.15480651590211  83.83390500169527  20.177698303911164
  118  119  HP  185.6205895473322  125.16372958823271  149.1730834614962
  119  120  HP  190.30083699359022  52.55027965161678  49.945303020289636
  120  121  HP  116.84777065316688  146.9638900321113  129.8348753349529
  121  122  HP  119.71902583733214  189.8823915403977  67.99043225591916
  122  123  HP  45.6311168950313  120.57748450675187  186.25010536336248
  123  124  HP  100.45581997532351  133.22217243724572  14.626198343154906
  124  125  HP  33.64813247813978  177.9816372090048  64.9574625964692
  125  126  HP  116.48398465073497  29.044052210035098  164.88580137996317
  126  127  HP  126.77170902382053  193.00081716420675  173.43532167755328
  127  128  HP  139.91896029154472  58.806229103642885  130.1814388433155
  128  129  HP  181.93813238454177  171.25097376559003  166.5342160570851
  129  130  HP  193.72852557861032  160.16803793195746  69.48698979327685
  130  131  HP  177.17719389544075  68.2447900215735  173.03546071963913
  131  132  HP  42.3799302141522  182.69482313566257  115.90977899247261
  132  133  HP  100.17626567910139  17.416289424796826  95.17756203208565
  133  134  HP  175.26039760475678  110.41623196899238  98.92125154480702
  134  135  HP  153.05157506433557  175.69861865414816  98.97648023654224
  135  136  HP  7.597649159375686  139.60609369123688  127.88338660771667
  136  137  HP  187.64504277602393  141.579004308333  68.70867460158077
  137  138  HP  93.17468482274556  63.668349610955666  117.34347640047562
  138  139  HP  182.08089907508796  175.71018834976968  118.47134781662518
  139  140  HP  56.481159182007936  167.03112503295017  137.83212126464466
  140  141  HP  102.04527273950399  68.95940837799523  91.10517341367135
  141  142  HP  26.153128730373055  21.559545084510678  91.05604756492627
  142  143  HP  70.28501144541879  167.42580365019214  41.423037234576384
  143  144  HP  180.60656677764993  43.31192382777134  196.02865871740377
  144  145  HP  148.34182075581325  74.69010929205069  3.5806658213717535
  145  146  HP  121.26903303193599  87.27563298034258  24.24666997413243
  146  147  HP  111.71892207552696  19.933903505293294  31.152838054075673
  147  148  HP  46.006580326099765  152.00560424627142  179.13753988776372
  148  149  HP  129.71422140902305  179.09402831672776  50.55855345432465
  149  150  HP  10.261545216195177  89.52193224350387  155.6858324324709
  150  151  HP  31.706731955709323  44.17965940823705  180.1726694172518
  151  152  HP  73.08994333401495  41.673302218718675  72.11089232095631
  152  153  HP  14.24578771542131  71.1205810876355  36.98087421828233
  153  154  HP  152.84345292375278  36.18969238133269  172.57114464383724
  154  155  HP  87.09509511663718  134.26716756611478  91.52937611549876
  155  156  HP  33.43902632419837  110.00628270112375  48.01691333011331
  156  157  HP  194.56483293483274  157.31675656019945  82.42292247150293
  157  158  HP  39.76429858206198  175.41800233777855  16.362258650322502
  158  159  HP  97.52171864409193  72.42009080108585  124.12072379495882
  159  160  HP  87.65809436585226  9.683025115850175  10.70949036029274
  160  161  HP  133.88762927823262  15.268039432229275  4.656389137649364
  161  162  HP  170.49463001744908  57.15717109927414  67.5196937297162
  162  163  HP  74.39293640755318  19.91133409285979  172.50080319951942
  163  164  HP  119.06950640264147  163.0406311614644  97.01472863253531
  164  165  HP  151.40493286919678  59.879959546721764  66.74952756496693
  165  166  HP  63.3635287819972  118.15675493708342  146.01425988765493
  166  167  HP  184.41003894345863  92.09409111572737  44.78921415667927
  167  168  HP  145.17936854464025  79.61712556717883  81.94902910725142
  168  169  HP  145.14198843055908  119.731665299101  65.97797040153692
  169  170  HP  122.18713190957628  64.48954706742572  194.93617756540448
  170  171  HP  85.45882878108738  79.38837087887411  180.74114046604646
  171  172  HP  144.73301464960093  181.40853500634006  63.26356030705793
  172  173  HP  80.32184038557537  159.14934834199434  101.20393716744775
  173  174  HP  181.09227714734857  41.89188521662957  195.21214592576678
  174  175  HP  179.54230213068007  36.958695869091265  170.248926014624
  175  176  HP  33.66292813869423  133.12379137060105  53.79438951937294
  176  177  HP  31.442283107389613  145.17448746178843  126.43735013457868
  177  178  HP  40.846759286633485  144.12428292219502  185.67851971394816
  178  179  HP  70.99583676180245  10.716140028109479  197.8759680382549
  179  180  HP  41.81307556435363  11.019368387565699  150.4157137119298
  180  181  HP  184.87275260761714  38.596002181476166  150.7511174563049
  181  182  HP  101.90458408097389  110.28221015200607  18.376022974778405
  182  183  HP  178.5520877604708  159.67466599429002  64.2312857703327
  183  184  HP  128.3057244306532  71.13747086743707  79.1861879804365
  184  185  HP  105.37751649311554  108.34151626433798  27.23655354799095
  185  186  HP  67.93184565191068  88.91228320582816  48.46762987641304
  186  187  HP  39.018518026934586  99.75793619528947  11.093217443493364
  187  188  HP  1.312611265673791  128.88719372486958  136.64619073411964
  188  189  HP  142.9227903055316  32.98796316054433  192.7390365050994
  189  190  HP  155.37817717301004  69.5714973061484  187.4967319509246
  190  191  HP  91.07981352774284  13.09422930016595  145.09385370826513
  191  192  HP  86.60899317862952  37.04546177729557  5.035483169973554
  192  193  HP  83.10443578634003  152.16364822199301  119.15386998110431
  193  194  HP  114.31138699998364  16.854082219404987  26.3290236331255
  194  195  HP  145.40873161949148  95.59009658786724  78.41614900422013
  195  196  HP  67.23941309830089  107.1006361099521  159.99707986541728
  196  197  HP  127.03806861417975  17.772976402169306  30.847672344657706
  197  198  HP  10.509623283259462  178.87608775062392  73.12546164051767
  198  199  HP  87.36895602101087  160.68924827495186  31.108679778782
  199  200  HP  29.032201517287714  25.823007158395782  59.03406848979185
  200  201  HP  76.0805017143798  159.2936084208918  129.28808442853347
  201  202  HP  122.49335299993336  34.234830361383395  48.58653907126935
  202  203  HP  8.010706801588308  7.266487370828467  171.06807249571474
  203  204  HP  127.96514378013899  1.0251850008999197  71.7265023573004
  204  205  HP  99.06747750347726  124.19873235599705  13.470227901679511
  205  206  HP  160.29989210625376  140.33770708894656  95.07749562879727
  206  207  HP  21.931866932646017  82.68837724693401  17.46497972241785
  207  208  HP  70.85797507643395  28.05313629161055  180.12697764532396
  208  209  HP  68.72259114998033  38.34302095517068  163.77847609794037
  209  210  HP  90.62658518200301  111.8136104351662  197.93910872999453
  210  211  HP  54.57440624927905  19.858324770394553  15.474800900163377
  211  212  HP  104.34297702252529  179.25696580874094  179.7871625951417
  212  213  HP  168.99300661509048  164.30350271415665  141.31550902776422
  213  214  HP  186.98188390826783  131.53639445759575  116.90096926172724
  214  215  HP  31.95828469812585  136.3864686192519  169.23909068140622
  215  216  HP  116.84481700742337  101.47806323451485  193.90898137149054
  216  217  HP  176.5150567639413  116.88652324330366  110.9926681060901
  217  218  HP  57.21869506036459  169.66835511562866  93.80797009917453
  218  219  HP  16.76155166493798  90.9917110832791  26.0349970157832
  219  220  HP  109.04019127836355  100.81146221640063  97.18198294047882
  220  221  HP  175.96299394519403  78.17929774713306  98.76704515281234
  221  222  HP  109.47135702015898  22.00624100263633  35.00617196893718
  222  223  HP  42.683035054559795  81.66647210931166  30.929583767792778
  223  224  HP  176.3265810327287  195.6478614139485  89.71516374758579
  224  225  HP  153.58800465500352  125.94454720090778  113.50281543406024
  225  226  HP  163.15569999244798  122.95714705528854  82.45974439827164
  226  227  HP  113.9631220167296  57.72732111439429  149.315914184441
  227  228  HP  35.959110598522884  97.11187153246466  168.4878564436188
  228  229  HP  189.66568953282464  134.9009327298799  137.6795474468008
  229  230  HP  42.576769259508815  120.97018122456748  33.44442657276714
  230  231  HP  3.5633885254454656  188.64076841059406  185.24861079798677
  231  232  HP  132.06654109038274  122.91890054229854  98.32230447796118
  232  233  HP  180.01950182899415  50.296820144394694  113.37290629364247
  233  234  HP  19.750799226034378  60.242337038836816  28.08533713882062
  234  235  HP  147.90754586047154  47.75318282428815  132.53897628753492
  235  236  HP  112.43383257616833  80.88880905019873  84.81168367256812
  236  237  HP  134.29976846274744  49.74598478858021  12.266040082562245
  237  238  HP  190.9714549830667  184.63970383478784  32.28548848121315
  238  239  HP  41.88403530410716  142.3752083692334  185.4117243574412
  239  240  HP  74.35284829294653  10.050445163844678  51.967289132304394
  240  241  HP  35.774697707499485  73.02160272450438  31.426959031086966
  241  242  HP  35.6187800662076  199.03587413660378  13.362463545843228
  242  243  HP  141.3085340029792  20.52433677029082  102.69352133556322
  243  244  HP  110.3935606103727  99.42136687458765  51.25658258964716
  244  245  HP  149.9727564055758  179.7432506585062  120.35490858477453
  245  246  HP  52.59251078826701  108.8854895217319  144.73519397423388
  246  247  HP  79.91907704587213  49.155953743739374  181.35359345831728
  247  248  HP  85.8056673123706  121.19318500546284  64.93068504161512
  248  249  HP  192.4294261702377  194.14981992522317  98.60742237116872
  249  250  HP  129.04804699924907  84.07661445993202  3.831955962007627
  250  251  HP  139.74360613914828  90.05345318833578  102.86960952168455
  251  252  HP  24.550232167317176  29.705284870062542  195.8923859405454
  252  253  HP  162.16392663545892  79.7122517576374  132.71640597300882
  253  254  HP  60.35158011978534  35.26937559163783  113.68041496388737
  254  255  HP  61.52061422851944  169.73504726729524  113.18486468241788
  255  256  HP  160.16817722572605  164.13581067698016  75.25690622203156
  256  257  HP  170.32962543939112  18.736203656803376  102.2782921301015
  257  258  HP  189.29301026907362  170.7123477709078  199.74241715362243
  258  259  HP  54.635717039679996  190.1383953664349  35.35142517351013
  259  260  HP  89.40078312499897  85.205710036205  46.95416639262127
  260  261  HP  126.05479194049572  95.50085150257435  90.06967395166564
  261  262  HP  176.3207177790589  52.56710648509608  125.58455203384035
  262  263  HP  146.69704266552694  22.181569725380257  55.886648215903456
  263  264  HP  184.0802342757069  120.74413269645285  163.61099496876568
  264  265  HP  179.13829744161058  7.7568328771495665  166.87563830223567
  265  266  HP  154.31144632021457  69.72887478206718  38.41522688371801
  266  267  HP  87.41972110482601  70.39421037191485  32.59622630127799
  267  268  HP  89.45342951216004  5.061704982090887  31.285375838262432
  268  269  HP  19.43580848890982  149.91299268433642  128.98470994259682
  269  270  HP  47.60627486524258  145.42682797246232  112.15128234890419
  270  271  HP  126.9007421040737  190.98986034937482  150.57420996445202
  271  272  HP  52.39693328171236  135.50328521647174  162.77995823474384
  272  273  HP  88.77222845385235  100.07388862117207  143.58000698985626
  273  274  HP  157.08664816067508  85.3934204615386  101.50158526426922
  274  275  HP  130.98865844553893  131.65934988524268  99.81654492763053
  275  276  HP  53.79945773317068  179.54255210769318  142.83400067190522
  276  277  HP  72.91863096732779  8.774241230813429  138.17678130996686
  277  278  HP  32.764277523088545  8.975165108000983  152.10817487551017
  278  279  HP  30.785866315150678  43.49923021086817  102.04680556824542
  279  280  HP  164.19460211078575  36.30842918456618  138.77788282684256
  280  281  HP  149.69621961203944  29.413349449658565  173.5619422499006
  281  282  HP  83.88418528232418  108.70928427812659  81.08917400259001
  282  283  HP  180.91036036920192  142.44708399350552  66.09622160917186
  283  284  HP  180.5712623704521  145.0562589422806  189.5554562534421
  284  285  HP  23.829742314925518  125.39205114305756  92.2245456069265
  285  286  HP  116.87777660354861  28.12568221734868  155.22935298369896
  286  287  HP  15.89698556810819  46.39481274005271  42.03292817534536
  287  288  HP  36.384813071379064  62.72586747416224  137.0193943810877
  288  289  HP  74.97643290388571  117.41958043514069  164.8066497816397
  289  290  HP  179.6660381410972  89.5026820531432  140.7396747086249
  290  291  HP  67.69488094202745  85.94616359444929  113.3393425779006
  291  292  HP  65.86555723588286  192.9242938059607  61.05968177123238
  292  293  HP  118.63141859092264  134.0127928049354  157.48470735023966
  293  294  HP  110.36027369908652  7.44811716165843  152.8563282099074
  294  295  HP  58.72222178764941  165.04020668825754  62.59871651405091
  295  296  HP  18.285698886962344  47.63829519809006  53.16479193178301
  296  297  HP  52.98284293236164  25.144886043003734  56.918740221775124
  297  298  HP  96.1216001279779  117.91235331747009  159.98380359283803
  298  299  HP  66.88873419773395  179.36052088597748  57.899449924112446
  299  300  HP  198.81860968641183  184.54257297752258  26.360410215583087
  300  301  HP  83.60225834170649  11.983054463113296  98.94194959535399
  301  302  HP  114.14270675460669  96.78030042765383  99.51344221969232
  302  303  HP  97.27957606434106  137.0358087002807  50.70027208843666
  303  304  HP  69.3781697511928  90.35927610328034  96.38659862559508
  304  305  HP  105.9795188121895  198.50894602986733  32.189775463563365
  305  306  HP  26.796781392888214  1.137574598179114  143.27672548617488
  306  307  HP  74.4355585793661  181.81899340105204  164.36829543737602
  307  308  HP  9.972494652138831  77.54874245591235  120.05055610744961
  308  309  HP  47.53699763274142  23.706245137894612  124.46721228443359
  309  310  HP  8.758155570474525  166.31517628845543  41.10540100250872
  310  311  HP  10.065325306256057  139.58533098688315  142.41687427417727
  311  312  HP  59.68755580500127  161.56308869296245  143.31463313893934
  312  313  HP  84.27735528636258  145.83575875562335  186.6533126509465
  313  314  HP  79.43307605296623  110.15048443308967  7.377601015142887
  314  315  HP  137.27800876963408  45.35030658815589  90.92128819860686
  315  316  HP  107.64392737421198  73.1812267805522  44.51260234848598
  316  317  HP  86.98011735528885  22.34972201391019  7.214156022867257
  317  318  HP  119.95019485101086  134.3692338089088  98.15837088761316
  318  319  HP  153.8544469222841  179.86444619768344  188.98940831033596
  319  320  HP  163.73432514207659  39.50974061654806  136.50533462202154
  320  321  HP  146.8365918685786  46.01311748623633  70.66677574448033
  321  322  HP  0.8294903881256754  96.64360352176583  74.79837585429048
  322  323  HP  54.67105972785464  149.6853385939171  72.94723180788256
  323  324  HP  30.358560305851114  45.827319470410764  110.94637717489091
  324  325  HP  172.33473453074515  117.53398403950581  7.89003019138832
  325  326  HP  147.7993832062453  6.7124568657769945  115.26024211366628
  326  327  HP  100.4797306178  176.55437211000623  172.1598089698331
  327  328  HP  62.38629016427022  193.25128080843464  189.38932474637718
  328  329  HP  131.95002818617962  57.712418563451465  0.9373187195594657
  329  330  HP  172.25745217961025  115.92663712140701  5.4545396475802255
  330  331  HP  149.92503337576605  11.347996607673071  159.5874986893956
  331  332  HP  80.307687407592  86.3429086744181  32.21998485557156
  332  333  HP  24.59862634461949  40.17694980997268  157.67536185331633
  333  334  HP  171.65468157480137  112.14333112109469  153.67312246574244
  334  335  HP  148.8759179168865  153.22668186556686  12.660921581820862
  335  336  HP  191.50441770297638  174.7165750093454  136.03346621749074
  336  337  HP  28.830894314978895  188.48581250714219  77.35305404338284
  337  338  HP  31.167938015236718  47.11675210857478  40.15961970523429
  338  339  HP  103.005450956529  44.407284110865476  147.95122079684316
  339  340  HP  140.46160229313148  195.17465585870988  165.1374405444955
  340  341  HP  184.98388839690116  60.20619507776826  35.96770163968639
  341  342  HP  64.53879648087806  16.487359297550476  92.75976236761099
  342  343  HP  41.459360516997165  46.7905365737284  170.27516224712838
  343  344  HP  82.42047527506237  18.18816280532336  20.57908832681994
  344  345  HP  32.295795464207  69.73376395767032  53.84600915585938
  345  346  HP  17.17583522861208  191.37328892519503  92.47177484481584
  346  347  HP  143.36522340312328  162.34286013379645  47.478042823738576
  347  348  HP  75.90631946431223  25.022871727128248  32.71175086181033
  348  349  HP  63.07883928748683  188.7528759855863  161.35198091044848
  349  350  HP  194.3396796691567  88.85999941362823  28.362473629031015
  350  351  HP  168.5268489089737  34.43069934918523  65.43375680418752
  351  352  HP  197.72661953134497  38.893507103596136  182.54207271896743
  352  353  HP  107.27713644947383  135.59219905133787  55.378486997494704
  353  354  HP  42.63293216585433  102.5223131895286  104.99122234631153
  354  355  HP  121.27315476501315  95.68031351123439  159.01949118605262
  355  356  HP  98.50105958794451  153.9711902778983  56.006383824303455
  356  357  HP  93.85794190355354  83.79480531405  125.31730443109792
  357  358  HP  24.405075938244103  180.98586610186132  21.067445274439333
  358  359  HP  20.26699246211139  21.546303473446017  80.87457424993157
  359  360  HP  22.609128443389782  52.65702916877066  154.36298083810132
  360  361  HP  172.05527040336602  190.21417826306697  164.69773946757553
  361  362  HP  30.332253118956352  107.85630390799486  30.208000172171555
  362  363  HP  189.74971098773133  89.01858126295924  48.06066983942587
  363  364  HP  89.47734049446613  181.73235813738225  133.33706743906447
  364  365  HP  21.1856346745561  148.50868109620248  194.7215034484194
  365  366  HP  94.22152283826144  135.52825051412444  25.552145766842727
  366  367  HP  181.75051927252363  192.56425313866907  153.08103603928376
  367  368  HP  165.58695600062524  175.45622309857856  177.96770736894564
  368  369  HP  138.84311733630724  64.30009871941355  103.95629706178855
  369  370  HP  111.75896791905929  32.61167929551505  49.62929230613009
  370  371  HP  157.30046901575028  66.21789249613495  35.693944249932706
  371  372  HP  112.20388150150062  35.96950940075312  83.05244657366121
  372  373  HP  30.972671581319112  173.00733979171483  6.142649635421105
  373  374  HP  109.23119994252963  49.87315425544963  38.021143643215936
  374  375  HP  8.493650107413231  144.85079311439338  37.126220882356485
  375  376  HP  21.11095193017809  36.21553646374449  130.50523644295825
  376  377  HP  61.7832708787861  17.08595167318474  107.86056926479264
  377  378  HP  39.61198877418379  52.07649355334063  126.29365662079341
  378  379  HP  141.23919495569692  56.95006369988982  67.02144862523234
  379  380  HP  164.61692830020326  16.734770527318645  188.4368557235749
  380  381  HP  4.1399739870718655  88.6216683549208  33.896228600695856
  381  382  HP  88.51474622451848  116.49626472150882  137.92796951751066
  382  383  HP  30.556243899456682  156.90597313894241  7.476742937707215
  383  384  HP  72.09610681891505  43.770670426789906  64.41413928627908
  384  385  HP  64.12734067098962  45.92020236261136  22.961386265502682
  385  386  HP  108.99366713101158  20.409064365644515  147.94967021753868
  386  387  HP  79.42570682534563  8.214483445875342  157.90354621146747
  387  388  HP  150.57915702944945  104.19478673472547  126.88510813353075
  388  389  HP  84.14854651752786  3.5863885383759175  169.718410471232
  389  390  HP  25.13953904432247  59.950004809304836  91.69026717765843
  390  391  HP  10.095080479264308  176.78952659867144  139.26325665555282
  391  392  HP  53.995574853730275  68.87288249849894  123.31620742288021
  392  393  HP  135.7939093082243  154.38275444814494  20.724499121944028
  393  394  HP  142.375081364093  41.413027430594695  83.60998439338817
  394  395  HP  44.7888889954867  78.24984483865933  172.36530002113764
  395  396  HP  110.98650987616392  133.89312191908803  92.24896033879347
  396  397  HP  132.11664775737225  172.2117138983445  111.40482375357143
  397  398  HP  167.5936880047771  162.55164878455878  81.99881835883096
  398  399  HP  133.46576659980437  42.95742430627036  184.93610002952795
  399  400  HP  59.658684376685244  158.24117533249606  95.45113462211263
  400  401  HP  129.17625565816536  31.815094528876607  41.0803837597177
  401  402  HP  109.5391391758759  23.771780850480773  58.16190070256502
  402  403  HP  35.80713249905683  38.049703572799  115.34959196360013
  403  404  HP  141.763101427055  79.23284735880604  110.83836463267434
  404  405  HP  176.60495458741926  29.10677555113841  4.1033531179775595
  405  406  HP  196.60679295994007  102.52718386516966  181.811272204597
  406  407  HP  98.19101378689841  195.10592639070785  23.273389093088515
  407  408  HP  4.5997291349122005  139.35898328829575  45.92807052189922