LAMMPS (17 Apr 2024)
OMP_NUM_THREADS environment is not set. Defaulting to 1 thread. (src/comm.cpp:98)
  using 1 OpenMP thread(s) per MPI task
Reading data file ...
  orthogonal box = (0 0 0) to (200 200 200)
  1 by 2 by 5 MPI processor grid
  reading atom labelmap ...
  reading atoms ...
  10000 atoms
Finding 1-2 1-3 1-4 neighbors ...
  special bond factors lj:    0        0        0       
  special bond factors coul:  0        0        0       
     0 = max # of 1-2 neighbors
     0 = max # of 1-3 neighbors
     0 = max # of 1-4 neighbors
     6 = max # of special neighbors
  special bonds CPU = 0.001 seconds
  read_data CPU = 0.016 seconds
10000 atoms in group swi6
10000 atoms in group atoms_mobile
10000 atoms in group typeSwi6
Generated 0 of 0 mixed pair_coeff terms from geometric mixing rule
Neighbor list info ...
  update: every = 1 steps, delay = 0 steps, check = yes
  max neighbors/atom: 2000, page size: 100000
  master list distance cutoff = 10
  ghost atom cutoff = 10
  binsize = 5, bins = 40 40 40
  1 neighbor lists, perpetual/occasional/extra = 1 0 0
  (1) pair morse, perpetual
      attributes: half, newton on
      pair build: half/bin/newton
      stencil: half/bin/3d
      bin: standard
Setting up Verlet run ...
  Unit style    : lj
  Current step  : 0
  Time step     : 0.001
Per MPI rank memory allocation (min/avg/max) = 9.917 | 9.921 | 9.925 Mbytes
   Step          Temp     
         0   1            
     10000   1.0860279    
     20000   1.068685     
     30000   1.049333     
     40000   1.0526164    
     50000   1.0362293    
     60000   1.0257586    
     70000   1.016122     
     80000   1.0464984    
     90000   1.0161882    
    100000   1.0114316    
    110000   1.0088944    
    120000   1.0197746    
    130000   1.0134549    
    140000   1.0188243    
    150000   1.0155353    
    160000   1.0116274    
    170000   1.0102596    
    180000   1.0115965    
