# Initialisation file of the particles

4000  atoms
1999  bonds
0  angles
0  dihedrals

10  atom types
3  bond types
0  angle types
0  dihedral types

0.0000   500.0000 xlo xhi 
0.0000   500.0000 ylo yhi 
0.0000   500.0000 zlo zhi

Atom Type Labels

1    A
2    U
3    M
4    N
5    P
6    PU
7    NA
8    NM
9    NU
10    HP

Bond Type Labels

1    Normal
2    MM
3    PolyPromoter

Masses

1    1.00 
2    1.00 
3    1.00 
4    1.00 
5    1.00 
6    1.00 
7    1.00 
8    1.00 
9    1.00 
10    1.00 

Atoms

  1  1  U  85.55601405591456  79.8098823479572  136.7972094559701
  2  1  M  75.73039000527199  78.75064051011867  125.88245382751893
  3  1  A  80.29684292141606  96.90664996638817  127.10475816051714
  4  1  A  69.41742085364349  94.83915000947763  123.11705392420325
  5  1  U  91.0854216632585  44.2062426144842  117.96982972817153
  6  1  M  83.24510542408905  124.00175415318931  107.61941101440996
  7  1  M  111.07039459689291  114.02555185866349  98.05791763868388
  8  1  M  87.67539370608159  83.48338210795404  103.46131369746503
  9  1  A  69.65837511365896  102.45110853257779  104.58856538881132
  10  1  M  148.89228598489163  18.892110605125637  129.3436607027734
  11  1  M  85.46341272148732  100.19073673183962  97.47298901714626
  12  1  U  146.26464899205297  97.83770825539852  88.6702625349527
  13  1  U  88.58852483980776  146.0442243009727  69.17980196306394
  14  1  A  130.76766051334607  103.71388059345084  124.2426983542259
  15  1  M  171.1665866576622  124.18438534713871  83.06569214334976
  16  1  M  92.54962850008727  96.81062180076741  73.87005882226117
  17  1  M  90.31196893843847  111.14428689629905  90.9123705647875
  18  1  M  97.15096523097385  94.86617961574672  103.33209073269482
  19  1  A  135.43465340804266  66.1479918310565  89.62940945408371
  20  1  U  64.36247430482248  88.17487768724122  159.4801071220872
  21  1  M  82.96044003488466  99.075000550372  88.8933150858651
  22  1  A  75.20389049082056  133.27419995134548  59.92026726661003
  23  1  M  43.912404618952216  76.98958133457569  41.07347003556608
  24  1  U  119.01945428898183  64.4917497579298  69.96882652217673
  25  1  M  97.2113578100192  101.10337486954019  101.0027632719636
  26  1  U  117.989321104738  118.20949588163501  165.32676314303313
  27  1  U  72.00248817015388  82.79090144712453  120.54945727479503
  28  1  M  86.74241386341542  49.38011909493958  93.68395844596374
  29  1  M  141.71571345560668  97.99076340209703  92.56997413597264
  30  1  U  101.05385633795336  115.04742976865188  101.82904465564916
  31  1  U  114.26652847760609  159.73939973566004  97.4166200113063
  32  1  A  156.58996722003803  62.64380853309349  77.13140045972318
  33  1  U  112.84319178028375  94.04985821826504  54.77181773468029
  34  1  U  66.94291475866906  113.99983258159669  160.22090275949472
  35  1  U  101.80638899846787  111.39532169505442  109.55295807372651
  36  1  A  107.38743293975095  174.50493104994854  38.20143511150498
  37  1  U  94.07860736022634  99.42474151765464  115.70645349904831
  38  1  U  69.12254143266212  104.3533622234524  87.05963860486871
  39  1  U  109.42760379625842  101.60087713853005  118.18882380204712
  40  1  U  146.1759581480865  105.00716158087255  105.62247723849974
  41  1  A  150.02111504856185  139.5074387389027  81.33568848539575
  42  1  A  122.91287549941737  106.90034669350041  69.2533022169313
  43  1  A  57.315995333220684  117.5459500477273  54.077831297332196
  44  1  A  81.20161084058084  87.90263223561026  95.76142860724644
  45  1  A  113.79238447451704  130.77811995183546  96.4076897721286
  46  1  A  111.47881908966347  99.89144971943857  105.94381832817076
  47  1  M  72.77745880976337  139.93305144473834  139.2586588107335
  48  1  U  87.93811190503061  108.23270734004797  95.04669784342438
  49  1  U  100.44708172610767  118.65987421758572  89.1561116655304
  50  1  M  113.52172629182301  98.83025424943854  107.48421457234413
  51  1  A  72.12096164076954  81.72939122244378  14.294462343062264
  52  1  U  48.912700426820315  23.623148713849687  84.287055393373
  53  1  U  118.56998983978416  90.03801949101214  87.12438940344485
  54  1  M  127.34694513106587  110.4824626059482  117.81931653741387
  55  1  M  114.23931690211444  64.54869529859297  44.850121238438284
  56  1  U  130.46759268898282  99.2123799548539  90.73006393166466
  57  1  M  37.38338631383427  139.12262621595931  100.36506300039109
  58  1  M  38.86594402686526  124.27015588545501  92.81285245119163
  59  1  M  96.5321114987009  137.75917061691837  154.23292339817672
  60  1  U  99.25854674669964  103.97310833640114  91.51338224288392
  61  1  U  145.14572437274265  16.80375383676251  109.61030079752615
  62  1  M  43.64314712161975  129.34593848502243  112.96610524212227
  63  1  M  102.04783897279243  100.59079318735868  105.87602692731696
  64  1  A  86.0133121227503  110.03606699524781  130.4122872670367
  65  1  U  67.37836825010606  160.5891226773392  106.31258335443313
  66  1  M  48.34109703289755  128.43347042597773  31.45267875639587
  67  1  A  116.60385075831681  89.68611522577278  15.703821725014123
  68  1  M  35.26867448916441  141.08913321341245  151.88552159239848
  69  1  U  79.98837891741107  89.7505328576105  86.67778515455024
  70  1  U  99.5783497500649  100.31367338575849  101.02499771410655
  71  1  U  98.5564818032755  148.8719233693356  125.47777426438181
  72  1  U  100.5678382700393  148.54296309350593  43.156784554899765
  73  1  M  163.4414436878589  109.71084160696346  157.20295411360834
  74  1  M  128.06662729561293  110.15333251301145  141.48702804603158
  75  1  M  88.9749107262684  73.80667372855301  76.46352307026547
  76  1  A  98.60836050640839  100.30964457295396  98.4749635805502
  77  1  U  61.18153191583821  91.06867025894528  14.927315757852583
  78  1  U  89.89039046563653  66.98685928894096  140.52484135298891
  79  1  U  121.50835287481564  110.90733698559711  132.25530619669055
  80  1  A  146.27904879570568  83.4870341070766  106.25417872906073
  81  1  U  155.24713386839198  123.49398790697867  130.5402704256785
  82  1  M  101.29169552628137  78.17095233674411  108.68615277357097
  83  1  A  89.49814989339134  85.33441032223436  122.20574538930275
  84  1  A  33.00569512332352  157.42123963791204  58.854199537548965
  85  1  A  116.63721414647348  41.721574291679914  123.21400859516612
  86  1  A  77.94132683403363  140.54625977969818  62.20991422045214
  87  1  U  69.37149273935678  112.80829736236183  129.17458926379754
  88  1  U  108.68037269390022  52.46882961228236  70.37139781657766
  89  1  A  84.23036096894388  122.2978716709506  100.7451799847465
  90  1  M  111.53401058723111  70.81050973094794  123.9363374723267
  91  1  M  191.19632347865988  118.13355837733032  103.15939370651628
  92  1  M  95.0827933928544  109.51221999322148  175.72097068918174
  93  1  U  81.61705019621965  149.96797523554255  31.974168364356927
  94  1  U  66.30492333951271  92.58011678705279  191.46024476584353
  95  1  U  142.97282183836984  140.95075038554035  134.93095227955888
  96  1  U  97.30560410203529  156.80934001254298  106.20066737015804
  97  1  U  72.39277180394002  122.036750565093  64.4116732816288
  98  1  U  123.27022592521791  118.14189658474581  53.139934053232246
  99  1  M  91.59537330294158  20.23342358350962  137.39370654275476
  100  1  U  147.18356886137366  53.429488593987834  89.92021339830949
  101  1  A  165.57834199782263  156.2726037176589  98.9172472598102
  102  1  A  89.11399032090648  92.261514521254  95.39803457744351
  103  1  U  102.26655496034857  90.59412080150999  105.03614816435774
  104  1  U  77.65600917249527  101.4740964219602  87.64550048936397
  105  1  U  160.53464636047826  128.96838141545572  146.16598125815474
  106  1  A  152.04199960019986  107.06976150252984  82.30613160758874
  107  1  A  132.75542457994135  38.04834380769991  126.90087010081035
  108  1  M  88.4634226660879  92.27020810454178  107.3089397504697
  109  1  U  161.56351415017934  102.7758178679085  57.936007620426544
  110  1  A  101.01063137004861  97.75379503493194  102.8047918342024
  111  1  A  81.30076964195038  186.95281153812357  66.48835698489916
  112  1  A  106.05603420511805  116.78733245809136  112.55995465096703
  113  1  U  119.78710091373681  151.69364216439436  103.60464844756567
  114  1  U  137.2903855666202  148.26333290982188  178.41260685239246
  115  1  U  127.37028820290399  112.22836960615729  161.40022744417297
  116  1  U  40.31697185872045  111.61721275170578  58.40230852703442
  117  1  U  166.78120515323252  118.44595410879917  79.07670751185408
  118  1  A  122.05387740130261  89.72860955401148  127.10342265767352
  119  1  U  107.26807357703032  47.39336597141559  17.181887985552223
  120  1  U  102.2236535980286  96.82003297971433  102.49140536444455
  121  1  M  55.2742653543585  71.23281042351121  49.3323697357977
  122  1  U  108.98240944767045  117.01230342644513  148.8220238023043
  123  1  A  138.72317449779  69.35119754740091  144.19306556011938
  124  1  U  93.68190491841497  106.68753464426962  98.42408385375981
  125  1  U  92.99583668620862  113.15911472324822  142.57358713774286
  126  1  U  99.9596907817892  99.78384581981393  98.07737041110119
  127  1  A  86.91325168250906  117.51848281028997  70.97713320295142
  128  1  U  100.30190625725936  96.08595960022731  87.4928823129745
  129  1  M  100.61070935534329  114.14384756096867  118.15751994496888
  130  1  M  89.02407511264857  137.05292834126323  137.26526227742335
  131  1  M  92.0612942154835  138.85724415384658  60.663479338989305
  132  1  U  94.79035823827613  97.61683361026644  100.45941330882962
  133  1  A  153.70063510585143  101.50145582801042  143.03373166514348
  134  1  U  60.0531485705811  91.41459141004265  128.90684760492536
  135  1  M  97.56515856772899  122.20489623899192  45.67282160221205
  136  1  U  81.75772189166354  59.739002331486915  35.19452756014722
  137  1  U  58.14193804225601  171.50569759865743  104.27865589909572
  138  1  A  87.54422269666149  149.828513155468  101.32951945803599
  139  1  U  32.52165282762263  138.14464671949156  128.29640696846658
  140  1  U  98.2078219650996  98.07254907037468  99.49467476475252
  141  1  U  99.99270964874013  100.01035013908132  99.99963155909198
  142  1  M  120.91568926600803  90.9297212304879  90.9756464284345
  143  1  U  155.93168615780638  127.33683131987159  133.41990728783003
  144  1  M  158.66644934444975  57.95685836687066  79.42661015911732
  145  1  M  87.90248104854986  30.14535825182817  130.76613449133734
  146  1  A  132.3835422402785  74.21578037398174  13.194245534529102
  147  1  U  107.85440146147452  101.2316053141923  88.21228053692474
  148  1  U  121.8770648945252  111.45819587271727  98.18108360327986
  149  1  M  124.58347870773991  65.7492851548202  136.5764747704318
  150  1  U  82.26983507899365  145.51085216037063  74.84787992867318
  151  1  U  116.14401581897185  102.71776453677249  93.307798276169
  152  1  A  56.93891911642894  119.09793474729739  92.26123084766051
  153  1  M  117.52024870405562  90.50609708324355  81.23162967386344
  154  1  U  91.86936449782112  113.13728846076685  82.91325922496628
  155  1  U  113.52983670904972  161.3356731133672  42.965026556445316
  156  1  U  95.94205962484523  96.36880657966216  105.35077709068392
  157  1  A  100.10423290421676  93.46254981191134  99.83494549134286
  158  1  A  99.11405354987552  102.05689018991876  99.17685409639667
  159  1  U  117.20218420050935  122.67075971858097  187.2142186139194
  160  1  M  126.42361542633927  72.58002775514484  95.77107078759104
  161  1  U  159.56809193201076  120.85917451022017  124.86173451456972
  162  1  U  77.44101178546966  51.9305282946818  72.35254612656337
  163  1  U  162.46431353544517  31.267323271234076  81.36970172503023
  164  1  M  95.59415229434398  129.83396994349567  101.0909955349876
  165  1  M  101.21343547709758  128.41311317787725  71.71386435849102
  166  1  U  167.15527094439622  34.73539511441952  119.99179057829579
  167  1  U  126.29361378275249  60.016699240726986  61.50452352549818
  168  1  A  142.31515675389218  93.69732158759028  181.6575863773076
  169  1  U  137.30325540034235  144.62326561970525  109.7105336073401
  170  1  U  141.7371097260045  167.7813129364813  77.94439014750272
  171  1  A  41.05904196533737  122.71768891644834  144.7376844484191
  172  1  U  102.06791867337009  97.98788396477497  121.09685792590457
  173  1  A  135.83019929524187  107.26799496166315  47.08781787518983
  174  1  A  104.63831199112786  98.74068317303167  94.96354643466051
  175  1  U  65.64542998072648  72.9680252736404  144.12239792159943
  176  1  A  64.32399303928594  43.43519376129849  104.19527302987943
  177  1  U  87.9201424143493  28.339072207352515  155.1332202414485
  178  1  M  100.47890049177305  104.1277194053981  96.04793989965052
  179  1  U  34.82691689192819  129.59296709919013  131.84102564621998
  180  1  M  101.83597709471937  100.51164550856028  90.33468081688169
  181  1  A  103.8503421021366  96.3444069503053  45.95060340007155
  182  1  A  114.86915838461616  81.82953367626392  81.73880882942667
  183  1  A  108.22436021795153  150.74631830205595  112.39614026993131
  184  1  A  102.45394477229337  99.69219669743836  100.10917954156903
  185  1  A  106.61010902842187  102.42212781211272  8.40700642801265
  186  1  U  119.30973788070844  136.17350568492728  132.77101803017158
  187  1  U  188.43875017338826  138.78737635588848  119.35655854106734
  188  1  M  137.14479467679627  47.876298846421655  143.7213398873754
  189  1  M  92.96424696125226  94.35178962080687  108.46517574026093
  190  1  A  99.24527885340996  97.40290948592896  99.80169894717181
  191  1  U  104.96130767795192  65.78787897987539  91.64484733594864
  192  1  M  98.74007575275773  99.75731089240234  100.21746500350756
  193  1  A  120.89500445844706  146.71633750959444  34.05679940618273
  194  1  M  99.40887970903391  111.15508908142196  94.48638162763089
  195  1  M  181.02043076287606  104.37076817037911  47.982274933362845
  196  1  A  97.77170511809145  107.24211319207126  132.89932247959985
  197  1  A  166.4059813691391  45.39143360269114  80.34894231597225
  198  1  A  111.95944768888229  39.77899415185002  73.85966788747143
  199  1  A  91.22274677431992  95.8464215060899  95.95786542978905
  200  1  A  98.96691187470425  99.89419272333289  98.13663426276204
  201  1  A  159.53717709228138  132.83116937338605  115.65532544248876
  202  1  U  94.65081776894878  154.47090081629443  119.00510446636247
  203  1  M  92.44303640371665  87.43755373312001  127.81367336976959
  204  1  U  87.92198458821912  108.73674363438965  83.58632746234835
  205  1  A  71.40081913301316  149.46999582280745  73.69800925764095
  206  1  A  23.23740771732554  91.98610447302242  143.02974196646457
  207  1  U  23.934472077548776  62.12716700185248  93.0521850976843
  208  1  U  113.97494167829517  122.21131102961208  109.22536811724737
  209  1  M  130.9567158534114  112.6354007616712  162.9346005175488
  210  1  M  77.92032818728299  86.22050165465748  97.39257930086785
  211  1  U  103.22468164495861  105.38260685468471  91.57527465864538
  212  1  M  117.31773106923754  106.53709026464969  105.66256722713918
  213  1  M  188.5231249506491  110.98061022865159  118.4781444717967
  214  1  M  46.437585686993614  115.956031734763  75.61732213410177
  215  1  A  81.59748552556478  85.9506104929663  112.1456748578085
  216  1  U  75.37038525449688  134.04028866208364  104.99306256077986
  217  1  M  104.40094476852431  100.20132093750307  99.5295855727592
  218  1  A  110.89996848870912  115.0390951411128  70.13077472359367
  219  1  A  161.24477441679403  80.03022561748662  90.09082536513341
  220  1  A  129.2808175726194  167.65228675331008  91.8079607652184
  221  1  M  100.04711478953415  99.74835583233046  100.26943616749577
  222  1  U  56.06175271806664  169.17173898262757  105.37277154717783
  223  1  A  63.95762584678894  71.13320846739427  23.082145593778492
  224  1  A  105.4865688012755  76.05692871077305  57.525700592880476
  225  1  U  127.07444974684  134.3749229822689  125.12885611894924
  226  1  M  77.33968345535261  58.45977345405385  116.84761550881751
  227  1  M  72.16094655894786  186.89284546842168  130.16483910811849
  228  1  U  114.3405016323451  108.81798214233196  75.482915507721
  229  1  M  132.33302102990012  28.748776062604975  118.82807184580128
  230  1  A  104.80955241112908  111.98802483109348  106.84588749818968
  231  1  U  22.642062185424265  98.4517824037618  68.56552356747711
  232  1  A  100.32174753983902  100.406222633552  100.1154937658283
  233  1  U  67.95017834944372  134.36626777695744  125.28841281262393
  234  1  U  152.86809032492553  33.10190316519024  138.92310804923324
  235  1  U  166.41658942852078  67.90581583699867  98.350982131034
  236  1  U  118.8783054262367  180.0209358794187  148.46280606983845
  237  1  U  75.85447239265082  164.97657706542532  33.69439478117333
  238  1  A  139.7844822797835  80.05837100141524  184.2359764560709
  239  1  M  104.19245159251216  17.218616629038934  144.0229758266974
  240  1  A  99.90510857633711  97.20386124436413  99.91452422340997
  241  1  A  101.2613964339406  89.45515423287463  99.38978023522907
  242  1  U  93.35626908517436  98.06258579866076  114.20529553067719
  243  1  M  98.45865009493535  33.76582055781991  97.04114635149506
  244  1  M  79.05931112776136  63.78125866882512  103.95751915659503
  245  1  A  49.489193335975145  146.87640455748573  67.8417923280422
  246  1  U  130.57983005380024  47.304035249138195  26.61106152906703
  247  1  U  150.97590405674256  55.71985464371664  58.4584076321948
  248  1  U  97.77637925133064  81.05714151503261  129.32650876388578
  249  1  U  82.94514961872908  62.35046455156547  34.711109856346496
  250  1  M  83.58529691091758  46.80076487441864  101.5912456444382
  251  1  M  68.27106854912344  61.49156519295504  54.453358823393565
  252  1  M  100.60761580968442  114.09184062736097  150.2039382500517
  253  1  M  138.2316266907747  168.58861146934566  127.56278233889049
  254  1  U  98.66512171942024  99.95997932455863  91.76621465523439
  255  1  M  95.91194936205848  101.9832253065776  99.97392438517102
  256  1  M  66.38815658256348  112.81678296299721  71.05422749114935
  257  1  M  144.14545954132726  31.7306067076629  149.99041133092277
  258  1  M  104.60042685389561  162.53475857022056  77.72634728872623
  259  1  A  155.41132314596143  100.09891017133728  41.40489230701187
  260  1  A  158.81469471437555  107.56912409444206  176.95029580116673
  261  1  A  114.77150739052493  136.8462980396361  127.27633907778966
  262  1  U  97.31146356542759  102.12581402312544  106.44889287077892
  263  1  M  96.16356015546543  110.91160837509831  91.05103906313728
  264  1  A  95.86439375420639  85.35877926802947  64.53677307414875
  265  1  A  74.61433484976855  122.33886624522017  91.14187010845254
  266  1  M  99.92319517862299  100.01777805205336  99.98252251378494
  267  1  A  53.16495978366024  95.25953314561843  171.0728046396605
  268  1  A  101.06072187362126  155.14239421187733  90.95440096639226
  269  1  U  68.39217724987802  90.29425497796583  33.71397600134701
  270  1  U  92.02767118527254  107.18568462335016  111.12099682379316
  271  1  A  108.13112281088576  93.66181323290725  108.09215368827387
  272  1  M  105.65567569294778  48.668972561638924  66.90807897243755
  273  1  A  33.595038554812646  69.88541639133902  43.0691349592284
  274  1  U  96.36499369062633  49.507016355302405  97.93163918799897
  275  1  U  80.73596338717648  106.83188155574702  116.6517086009692
  276  1  M  99.11071667411849  100.43336951380816  102.08437185376859
  277  1  A  91.19974263462422  119.09499001488473  70.14338643185943
  278  1  U  99.14957996302877  100.67229939190975  98.50058705807126
  279  1  M  29.465123943406454  147.97541524647647  52.58770798805597
  280  1  M  116.41815699994842  101.23753273092368  125.98683719379284
  281  1  M  114.29344901939437  73.8823637629414  129.3538512767895
  282  1  A  12.226114469034783  140.70134187326687  106.3623322046937
  283  1  A  88.84750616391757  100.07582543161477  127.89541784147374
  284  1  M  124.41183458924388  79.67384832178284  85.0109460534621
  285  1  A  120.1879653206965  97.03742802233607  80.5796838842891
  286  1  A  111.2011499307651  117.07182782869592  100.89285248364479
  287  1  U  97.73720941823457  146.10131325337238  154.31827089928274
  288  1  U  160.02334278400957  33.83550387161404  71.54968947161184
  289  1  M  84.15374022703567  105.2471646238204  105.26090495075755
  290  1  M  99.3930984624934  82.96161191529998  138.87048854040907
  291  1  A  109.23487351429495  31.295956199247016  36.914777456266314
  292  1  U  40.62822150134545  56.857376361260144  138.95652923611442
  293  1  M  105.94102447199407  103.3084171531776  106.8063392870519
  294  1  M  93.18401873541661  87.76112178077256  121.68242881234175
  295  1  U  104.68977868636698  101.31970828391725  114.1954431833463
  296  1  M  116.23664690657074  25.4120346330957  148.21557094341236
  297  1  M  112.67452056773506  95.5914911705749  68.16363160397131
  298  1  M  68.553215356475  131.85068634132315  118.77705190739727
  299  1  M  75.2765512326006  113.16299198283673  80.67771569320617
  300  1  A  122.18699668808145  102.27687429232253  101.74010684920874
  301  1  M  99.93698449684156  102.89436150240329  109.63971523458459
  302  1  U  48.80687524906596  110.81452475376939  52.60888594564595
  303  1  M  62.521726979856226  57.11706604358857  120.98625800884749
  304  1  A  105.298840220467  102.44174834222676  102.29833468217355
  305  1  M  106.33308411679484  87.9632538124021  88.54254942249796
  306  1  M  102.02554226581333  111.7967205062067  87.90232417038327
  307  1  A  101.78995959338609  97.35916193719997  94.4886177267562
  308  1  A  52.317975747455705  56.22334300828376  65.95271282908001
  309  1  A  90.89550122773849  169.633715477897  138.55700357077748
  310  1  U  85.60103020575953  106.60140736850089  130.78888762834578
  311  1  U  75.51200219296847  57.71597056657967  15.197719644812295
  312  1  M  41.447729686783454  80.20737563770504  91.56161013269305
  313  1  A  91.17562645109236  100.62832049107419  96.00022007872016
  314  1  U  55.35634441193077  70.89409169598791  157.77085568576146
  315  1  M  97.61553038346786  100.30183211156964  180.95704184356774
  316  1  A  33.025584822449886  94.33068389652604  133.44890472860405
  317  1  U  109.44728521271051  60.04108711739298  47.80829312021279
  318  1  M  130.10039892922646  121.1493783196895  70.16130714209612
  319  1  U  96.10603750971974  184.673931371408  64.30864831551456
  320  1  U  53.937318063712546  78.79497970804098  38.57997105499293
  321  1  A  95.12959488879483  107.14592669545715  95.77155621562163
  322  1  U  68.19251487242633  144.3586778718917  56.234424212786976
  323  1  M  145.86113220486814  122.08306620245209  113.40500934121881
  324  1  U  112.27450046264855  173.26210520680945  74.20102804969989
  325  1  U  99.69672610725866  43.604221841648844  171.27811621168988
  326  1  U  50.84502231968555  148.55275683506738  125.82510606372288
  327  1  U  28.33526316998143  146.72587631141127  62.441010410288946
  328  1  U  5.127457757401629  79.15081978958617  100.26849598621631
  329  1  U  172.18151260871934  72.78461014383872  140.2021487259687
  330  1  A  102.09183621572532  98.61606616171467  86.62356304214154
  331  1  A  186.6086726934248  87.2231263172834  91.07268627875219
  332  1  M  99.35763194255628  87.02242388781994  129.7731778077336
  333  1  M  53.43713072066173  122.67123432298808  76.08700642318348
  334  1  U  136.32357392768594  42.03972138868021  138.9791500552909
  335  1  M  97.7109750120823  92.38704043971046  125.58841593120493
  336  1  A  101.54252054618956  30.141706568602928  67.50472195634414
  337  1  U  31.144755871103385  67.98308903305596  152.02615861717516
  338  1  U  77.71006279092363  72.79140270410824  59.52662531089028
  339  1  U  71.55238471754699  80.59624775371984  129.8385514691196
  340  1  U  74.15543494668538  49.05019503186054  93.88907291523424
  341  1  U  91.44316083805586  93.8644513362506  147.99908803706927
  342  1  M  104.35318770324845  112.20280303264053  95.40361572709008
  343  1  M  82.56889728553324  114.75253354346735  95.62654252724957
  344  1  U  127.14648441274127  60.206902148870554  30.921625841703616
  345  1  U  101.09468448324665  78.02102151569639  92.01577612462307
  346  1  U  85.37865444728601  126.872725865402  131.66396092163023
  347  1  A  111.20607718408496  88.21855169386151  55.47838230587463
  348  1  A  100.90756589624038  91.49657195274939  100.84199098037044
  349  1  A  58.60943407137747  115.77903118190373  148.88673994795448
  350  1  U  24.529392391329125  147.13732632760411  104.37605436548074
  351  1  M  73.69457538520335  97.80076944411697  43.671491823707626
  352  1  U  152.74902735956968  100.36785620594631  114.54360174630958
  353  1  M  150.50698398422747  104.70454696595601  109.32208647423629
  354  1  U  91.56693361534518  100.43776722295381  103.97401040617555
  355  1  U  80.6026562017243  64.42298338237154  114.50132419157788
  356  1  U  122.58517049594586  86.09085997751558  81.86462360706025
  357  1  U  97.82222853381843  115.98228399299528  96.04004370355233
  358  1  A  115.24072773955112  120.37988026773107  101.79308444822027
  359  1  M  97.44642472478112  118.50054501857642  94.26794224744968
  360  1  A  91.10453949806316  113.0746265561405  116.24356351233087
  361  1  U  72.3587488140682  16.443513932952143  72.23909465209208
  362  1  U  99.43124813528877  85.80227250955451  112.97266704305835
  363  1  U  147.99389577371107  110.67646750600545  97.71118299535566
  364  1  U  119.35617486518706  81.98180413714132  116.81046426368485
  365  1  A  123.48847149362884  66.18994321159292  94.28798090672984
  366  1  M  110.52653716358527  98.83668604056109  97.10698708334893
  367  1  A  110.14669514361624  91.59700493170877  95.76086521424803
  368  1  M  122.14438767695444  114.94749304686034  152.0927156284494
  369  1  A  85.44793268057335  27.632347709263655  59.893951682671776
  370  1  A  88.59244279789152  140.56837641720094  58.537835766562374
  371  1  U  123.28972066500889  65.10074657387462  74.96462428098363
  372  1  A  90.59917160497962  79.25272936484171  105.67720034986631
  373  1  U  73.8090407632584  78.24728010679465  81.67784436241621
  374  1  M  83.6608793214925  159.28138241694606  64.38076500779081
  375  1  U  73.04237149129497  54.16146404006612  76.864547834402
  376  1  M  98.78012785004269  98.96021447542684  94.46246187156859
  377  1  A  113.7051967078626  80.27592178449105  124.36670878519307
  378  1  M  90.92819492891945  122.36762433405337  75.98351055475314
  379  1  M  53.156588437643265  110.8255132884432  129.07417075728824
  380  1  A  102.06884827414318  150.9897832566572  131.23278661821416
  381  1  U  135.1741687380072  150.90157038265818  46.68257901988837
  382  1  A  99.50098696319253  94.51061875218566  89.3006043589325
  383  1  A  47.00816715350916  97.91408487969782  120.73106260394376
  384  1  M  33.49530549036842  44.070026259630836  124.79430587857479
  385  1  A  95.78575487903132  93.44718165864629  101.82161015541735
  386  1  U  97.42738675291952  116.56563584643487  72.15932332688365
  387  1  M  136.32538510658551  69.66661272921728  52.00893988554749
  388  1  A  91.74646478846618  107.12232233193484  102.70926217100698
  389  1  A  53.44443140878238  139.74106993476764  77.3916893573176
  390  1  M  90.22017650888338  113.97084316122276  11.244036625416157
  391  1  M  84.19961820057162  128.43475672084128  110.0449339816941
  392  1  A  107.01455156416837  86.23007500299599  87.64556355982789
  393  1  U  91.70092105750092  93.259411318814  134.27833631504035
  394  1  U  35.73249498172339  136.68062967405825  36.18400805696474
  395  1  U  84.93130540699579  68.95262854605791  130.39048599131348
  396  1  U  79.87192833554559  72.92906033428424  62.94639323703455
  397  1  U  23.577025270112372  95.95308697410505  114.60303336516954
  398  1  A  165.5157201554928  95.87520376308979  164.2888341787309
  399  1  A  121.57789713589224  80.60075007156522  88.84865932148027
  400  1  M  113.56521023863526  70.86402472759664  110.1571691695646
  401  1  U  97.4806135119097  3.2735521178037885  102.33915845688837
  402  1  A  151.94734510600887  97.08454226732957  112.48499564187549
  403  1  U  77.93380887811746  130.96224288446146  112.14644699024582
  404  1  A  74.06267732429448  28.107192837081  106.30035199764914
  405  1  M  97.42438446916019  105.3054484374689  92.58251370586632
  406  1  M  37.396954404487026  89.2294096331523  87.09215135575327
  407  1  A  94.45281993025151  91.18464646167193  88.1763465170468
  408  1  A  195.37568304529543  110.22708389915685  86.52643856294682
  409  1  U  104.0262227082103  102.40359928095407  95.76230830380698
  410  1  U  76.81383815084125  113.31409590543568  85.83502172240189
  411  1  A  118.13502156405191  88.98979415485297  151.9514944588442
  412  1  M  93.85920116441369  106.13395138363323  87.02089377394793
  413  1  U  157.11351988095367  130.09583379251072  56.16869577883156
  414  1  U  60.60034937661668  79.70330609659787  100.19359658796068
  415  1  M  114.47036893706314  103.65893513539922  107.64075116101871
  416  1  U  34.1667796722776  113.11650926600605  29.976285437813004
  417  1  A  99.22924167004912  98.10198331466097  98.32107347934561
  418  1  A  121.91372573687251  111.06812252202133  96.04850066636351
  419  1  A  118.74694815908322  74.02896157809704  99.97540825172563
  420  1  U  120.6797843751101  78.72903394901957  114.2818379490374
  421  1  A  97.59398788256266  88.09943308112753  136.60183877414244
  422  1  U  49.72745309923878  34.91556119074485  128.79781226730674