# Initialisation file of the particles

2210  atoms
229  bonds
0  angles
0  dihedrals

10  atom types
3  bond types
0  angle types
0  dihedral types

0.0000   500.0000 xlo xhi 
0.0000   500.0000 ylo yhi 
0.0000   500.0000 zlo zhi

Atom Type Labels

1    A
2    U
3    M
4    N
5    P
6    PU
7    NA
8    NM
9    NU
10    HP

Bond Type Labels

1    Normal
2    MM
3    PolyPromoter

Masses

1    1.00 
2    1.00 
3    1.00 
4    1.00 
5    1.00 
6    1.00 
7    1.00 
8    1.00 
9    1.00 
10    1.00 

Atoms

  1  1  M  0.0  0.0  0.0
  2  1  M  1.2  1.2  1.2
  3  1  M  2.4  2.4  2.4
  4  1  M  3.5999999999999996  3.5999999999999996  3.5999999999999996
  5  1  M  4.8  4.8  4.8
  6  1  M  6.0  6.0  6.0
  7  1  M  7.199999999999999  7.199999999999999  7.199999999999999
  8  1  M  8.4  8.4  8.4
  9  1  M  9.6  9.6  9.6
  10  1  M  10.799999999999999  10.799999999999999  10.799999999999999
  11  1  M  12.0  12.0  12.0
  12  1  M  13.2  13.2  13.2
  13  1  M  14.399999999999999  14.399999999999999  14.399999999999999
  14  1  M  15.6  15.6  15.6
  15  1  M  16.8  16.8  16.8
  16  1  M  18.0  18.0  18.0
  17  1  M  19.2  19.2  19.2
  18  1  M  20.4  20.4  20.4
  19  1  M  21.599999999999998  21.599999999999998  21.599999999999998
  20  1  M  22.8  22.8  22.8
  21  1  M  24.0  24.0  24.0
  22  1  M  25.2  25.2  25.2
  23  1  M  26.4  26.4  26.4
  24  1  M  27.599999999999998  27.599999999999998  27.599999999999998
  25  1  M  28.799999999999997  28.799999999999997  28.799999999999997
  26  1  M  30.0  30.0  30.0
  27  1  M  31.2  31.2  31.2
  28  1  M  32.4  32.4  32.4
  29  1  M  33.6  33.6  33.6
  30  1  M  34.8  34.8  34.8
  31  1  M  36.0  36.0  36.0
  32  1  M  37.199999999999996  37.199999999999996  37.199999999999996
  33  1  M  38.4  38.4  38.4
  34  1  M  39.6  39.6  39.6
  35  1  M  40.8  40.8  40.8
  36  1  M  42.0  42.0  42.0
  37  1  M  43.199999999999996  43.199999999999996  43.199999999999996
  38  1  M  44.4  44.4  44.4
  39  1  M  45.6  45.6  45.6
  40  1  M  46.8  46.8  46.8
  41  1  M  48.0  48.0  48.0
  42  1  M  49.199999999999996  49.199999999999996  49.199999999999996
  43  1  M  50.4  50.4  50.4
  44  1  M  51.6  51.6  51.6
  45  1  M  52.8  52.8  52.8
  46  1  M  54.0  54.0  54.0
  47  1  M  55.199999999999996  55.199999999999996  55.199999999999996
  48  1  M  56.4  56.4  56.4
  49  1  M  57.599999999999994  57.599999999999994  57.599999999999994
  50  1  M  58.8  58.8  58.8
  51  1  M  60.0  60.0  60.0
  52  1  M  61.199999999999996  61.199999999999996  61.199999999999996
  53  1  M  62.4  62.4  62.4
  54  1  M  63.599999999999994  63.599999999999994  63.599999999999994
  55  1  M  64.8  64.8  64.8
  56  1  M  66.0  66.0  66.0
  57  1  M  67.2  67.2  67.2
  58  1  M  68.39999999999999  68.39999999999999  68.39999999999999
  59  1  M  69.6  69.6  69.6
  60  1  M  70.8  70.8  70.8
  61  1  M  72.0  72.0  72.0
  62  1  M  73.2  73.2  73.2
  63  1  M  74.39999999999999  74.39999999999999  74.39999999999999
  64  1  M  75.6  75.6  75.6
  65  1  M  76.8  76.8  76.8
  66  1  M  78.0  78.0  78.0
  67  1  M  79.2  79.2  79.2
  68  1  M  80.39999999999999  80.39999999999999  80.39999999999999
  69  1  M  81.6  81.6  81.6
  70  1  M  82.8  82.8  82.8
  71  1  M  84.0  84.0  84.0
  72  1  M  85.2  85.2  85.2
  73  1  M  86.39999999999999  86.39999999999999  86.39999999999999
  74  1  M  87.6  87.6  87.6
  75  1  M  88.8  88.8  88.8
  76  1  M  90.0  90.0  90.0
  77  1  M  91.2  91.2  91.2
  78  1  M  92.39999999999999  92.39999999999999  92.39999999999999
  79  1  M  93.6  93.6  93.6
  80  1  M  94.8  94.8  94.8
  81  1  M  96.0  96.0  96.0
  82  1  M  97.2  97.2  97.2
  83  1  M  98.39999999999999  98.39999999999999  98.39999999999999
  84  1  M  99.6  99.6  99.6
  85  1  M  100.8  100.8  100.8
  86  1  M  102.0  102.0  102.0
  87  1  M  103.2  103.2  103.2
  88  1  M  104.39999999999999  104.39999999999999  104.39999999999999
  89  1  M  105.6  105.6  105.6
  90  1  M  106.8  106.8  106.8
  91  1  M  108.0  108.0  108.0
  92  1  M  109.2  109.2  109.2
  93  1  M  110.39999999999999  110.39999999999999  110.39999999999999
  94  1  M  111.6  111.6  111.6
  95  1  M  112.8  112.8  112.8
  96  1  M  114.0  114.0  114.0
  97  1  M  115.19999999999999  115.19999999999999  115.19999999999999
  98  1  M  116.39999999999999  116.39999999999999  116.39999999999999
  99  1  M  117.6  117.6  117.6
  100  1  M  118.8  118.8  118.8
  101  1  M  120.0  120.0  120.0
  102  1  M  121.19999999999999  121.19999999999999  121.19999999999999
  103  1  M  122.39999999999999  122.39999999999999  122.39999999999999
  104  1  M  123.6  123.6  123.6
  105  1  M  124.8  124.8  124.8
  106  1  M  126.0  126.0  126.0
  107  1  M  127.19999999999999  127.19999999999999  127.19999999999999
  108  1  M  128.4  128.4  128.4
  109  1  M  129.6  129.6  129.6
  110  1  M  130.79999999999998  130.79999999999998  130.79999999999998
  111  1  M  132.0  132.0  132.0
  112  1  M  133.2  133.2  133.2
  113  1  M  134.4  134.4  134.4
  114  1  M  135.6  135.6  135.6
  115  1  M  136.79999999999998  136.79999999999998  136.79999999999998
  116  1  M  138.0  138.0  138.0
  117  1  M  139.2  139.2  139.2
  118  1  M  140.4  140.4  140.4
  119  1  M  141.6  141.6  141.6
  120  1  M  142.79999999999998  142.79999999999998  142.79999999999998
  121  1  M  144.0  144.0  144.0
  122  1  M  145.2  145.2  145.2
  123  1  M  146.4  146.4  146.4
  124  1  M  147.6  147.6  147.6
  125  1  M  148.79999999999998  148.79999999999998  148.79999999999998
  126  1  M  150.0  150.0  150.0
  127  1  M  151.2  151.2  151.2
  128  1  M  152.4  152.4  152.4
  129  1  M  153.6  153.6  153.6
  130  1  M  154.79999999999998  154.79999999999998  154.79999999999998
  131  1  M  156.0  156.0  156.0
  132  1  M  157.2  157.2  157.2
  133  1  M  158.4  158.4  158.4
  134  1  M  159.6  159.6  159.6
  135  1  M  160.79999999999998  160.79999999999998  160.79999999999998
  136  1  M  162.0  162.0  162.0
  137  1  M  163.2  163.2  163.2
  138  1  M  164.4  164.4  164.4
  139  1  M  165.6  165.6  165.6
  140  1  M  166.79999999999998  166.79999999999998  166.79999999999998
  141  1  M  168.0  168.0  168.0
  142  1  M  169.2  169.2  169.2
  143  1  M  170.4  170.4  170.4
  144  1  M  171.6  171.6  171.6
  145  1  M  172.79999999999998  172.79999999999998  172.79999999999998
  146  1  M  174.0  174.0  174.0
  147  1  M  175.2  175.2  175.2
  148  1  M  176.4  176.4  176.4
  149  1  M  177.6  177.6  177.6
  150  1  M  178.79999999999998  178.79999999999998  178.79999999999998
  151  1  M  180.0  180.0  180.0
  152  1  M  181.2  181.2  181.2
  153  1  M  182.4  182.4  182.4
  154  1  M  183.6  183.6  183.6
  155  1  M  184.79999999999998  184.79999999999998  184.79999999999998
  156  1  M  186.0  186.0  186.0
  157  1  M  187.2  187.2  187.2
  158  1  M  188.4  188.4  188.4
  159  1  M  189.6  189.6  189.6
  160  1  M  190.79999999999998  190.79999999999998  190.79999999999998
  161  1  M  192.0  192.0  192.0
  162  1  M  193.2  193.2  193.2
  163  1  M  194.4  194.4  194.4
  164  1  M  195.6  195.6  195.6
  165  1  M  196.79999999999998  196.79999999999998  196.79999999999998
  166  1  M  198.0  198.0  198.0
  167  1  M  199.2  199.2  199.2
  168  1  M  200.4  200.4  200.4
  169  1  M  201.6  201.6  201.6
  170  1  M  202.79999999999998  202.79999999999998  202.79999999999998
  171  1  M  204.0  204.0  204.0
  172  1  M  205.2  205.2  205.2
  173  1  M  206.4  206.4  206.4
  174  1  M  207.6  207.6  207.6
  175  1  M  208.79999999999998  208.79999999999998  208.79999999999998
  176  1  M  210.0  210.0  210.0
  177  1  M  211.2  211.2  211.2
  178  1  M  212.4  212.4  212.4
  179  1  M  213.6  213.6  213.6
  180  1  M  214.79999999999998  214.79999999999998  214.79999999999998
  181  1  M  216.0  216.0  216.0
  182  1  M  217.2  217.2  217.2
  183  1  M  218.4  218.4  218.4
  184  1  M  219.6  219.6  219.6
  185  1  M  220.79999999999998  220.79999999999998  220.79999999999998
  186  1  M  222.0  222.0  222.0
  187  1  M  223.2  223.2  223.2
  188  1  M  224.4  224.4  224.4
  189  1  M  225.6  225.6  225.6
  190  1  M  226.79999999999998  226.79999999999998  226.79999999999998
  191  1  M  228.0  228.0  228.0
  192  1  M  229.2  229.2  229.2
  193  1  M  230.39999999999998  230.39999999999998  230.39999999999998
  194  1  M  231.6  231.6  231.6
  195  1  M  232.79999999999998  232.79999999999998  232.79999999999998
  196  1  M  234.0  234.0  234.0
  197  1  M  235.2  235.2  235.2
  198  1  M  236.39999999999998  236.39999999999998  236.39999999999998
  199  1  M  237.6  237.6  237.6
  200  1  M  238.79999999999998  238.79999999999998  238.79999999999998
  1201  1002  P  128.70797825599468  121.39088310632393  127.0369305743414
  1202  1003  P  122.00485940554238  110.70754210368649  125.03863664368647
  1203  1004  P  128.5632034963482  102.2730337909112  105.16925627433365
  1204  1005  P  122.9799688083116  115.79309759971639  100.94195298036637
  1205  1006  P  100.53529743038328  116.02274978123911  129.81586342528942
  1206  1007  P  107.62632439689901  124.71505229456264  102.81364374609777
  1207  1008  P  113.19061920179463  121.96280241382335  121.13051259497529
  1208  1009  P  129.15878928242324  114.22365200356127  111.58901471233365
  1209  1010  P  117.63808820069708  124.0103582713148  101.62417776989994
  1210  1011  P  104.91827934192665  119.60206893288156  119.23588918694604
  211  2  N  135.015148835269  99.96467329219927  6.330698176682901
  212  3  N  184.6657551817968  108.44771965536245  47.461005604213824
  213  4  N  178.1279558139597  158.29082505531284  122.32044432135876
  214  5  N  101.80001657064567  195.08089869643376  69.07456316518872
  215  6  N  45.3339829205132  18.67291068442877  119.938182467877
  216  7  N  69.6676890984154  7.4213360040898095  77.43582733397973
  217  8  N  41.09552554493104  80.19506659605672  178.3455646609143
  218  9  N  130.98823099563816  192.56133461540622  78.27147326725142
  219  10  N  67.49975542697194  147.42510069065673  181.82049820903336
  220  11  N  127.11792279323532  3.872141828589932  95.09559924584036
  221  12  N  115.09597327946342  75.10664072179098  4.3316548978099405
  222  13  N  137.50978229476092  100.84503087443835  192.6946716646695
  223  14  N  87.31463309770301  139.7252101914921  190.88998372645844
  224  15  N  165.6499660093895  83.81464214345728  26.3242498916933
  225  16  N  104.1237396090114  32.58035158194576  173.73998765136204
  226  17  N  131.25608170967928  125.86395758548755  8.599162727172171
  227  18  N  60.93697801244969  180.60267496438857  144.4667190355359
  228  19  N  116.67133920535511  71.56967499634071  5.587166818878416
  229  20  N  85.87187186234874  1.954192068524975  86.31002036559524
  230  21  N  59.68922254873764  184.40122979575344  135.37617319947452
  231  22  N  93.98573375836133  168.99976396567098  172.13086145511073
  232  23  N  14.435066649487425  124.3240557828106  54.31649651135478
  233  24  N  81.19900080818172  163.12374825514473  24.75430354093092
  234  25  N  65.92414980454116  130.7842862456398  11.167775251302189
  235  26  N  88.85836541756936  199.37736547695127  100.05665414408038
  236  27  N  47.76597138478502  136.33510553014423  177.14509939547804
  237  28  N  146.5768856600186  12.883355073618617  84.46668422440516
  238  29  N  184.29044822565055  143.12882528519808  67.82819918876493
  239  30  N  150.49191434084804  77.32693226247123  16.714355465267033
  240  31  N  4.551934767759704  98.10055710862602  129.76674251785724
  241  32  N  120.651864122608  172.8031552357869  165.36972614272793
  242  33  N  83.79164597426102  194.96409838216744  126.81621297346693
  243  34  N  57.563989955724225  100.12921454395075  190.54925927429642
  244  35  N  140.68175710875002  143.2489548264621  180.4644178812182
  245  36  N  182.2032300418541  113.35084992034395  155.3568765113284
  246  37  N  59.410315934337916  61.916573096917624  16.92094040754121
  247  38  N  138.27095886599372  88.45333695515234  8.337530690002865
  248  39  N  39.28493308940555  162.78429680516518  51.29874000887695
  249  40  N  133.10083909740237  88.01593035663376  193.59869938108557
  250  41  N  138.89693052963548  125.78041690538693  11.555673446189033
  251  42  N  102.94009214300615  188.22898768477694  146.97873551203898
  252  43  N  125.41975477139391  189.73763457205257  136.06928068003234
  253  44  N  27.033051051874224  78.22300652631186  164.81964915400692
  254  45  N  116.45131067160985  1.6021946627807466  106.87213809559165
  255  46  N  34.241101770913744  82.7207001351135  26.670653215264423
  256  47  N  98.5582788219959  70.19870759671338  195.4452953850461
  257  48  N  21.85313720899653  137.1347862551527  49.85944270644571
  258  49  N  166.60961734663925  168.99513350170787  128.33426247524022
  259  50  N  58.89377775085543  23.209091396715237  50.873277655781905
  260  51  N  129.3282604042904  182.15663939664043  51.11094453041129
  261  52  N  39.17535443723595  132.57628417019725  27.61803952760961
  262  53  N  112.16783250707554  81.52003757643715  197.52145836124203
  263  54  N  30.575946036108903  53.01499753495605  45.47743334564529
  264  55  N  196.49949964520266  92.37473827011353  125.09386283090475
  265  56  N  172.78143119694522  57.44320815927679  46.224701384839484
  266  57  N  137.56842444061965  11.560348165896357  127.69551350872524
  267  58  N  81.93292984318373  78.02313951326545  4.132390354743464
  268  59  N  18.70064097998622  45.25792887723854  119.84237566737991
  269  60  N  130.34912041808482  181.22274265954564  50.182362915230414
  270  61  N  86.97970213935776  83.8431597505118  2.1765449558610612
  271  62  N  37.930650126447105  164.21149421649704  144.99199725239194
  272  63  N  182.75482171952905  46.240329104786305  83.82788611815761
  273  64  N  110.17430529412081  54.781787782669205  188.6103650576526
  274  65  N  159.33779646341216  19.63863301997945  104.59092670047511
  275  66  N  123.42231732009824  180.26143306915728  154.85888636348548
  276  67  N  88.17353893212291  156.7501767227593  18.51655222963639
  277  68  N  148.68162780352674  41.34376334819423  164.72669477307062
  278  69  N  152.17528657508575  176.8668710981907  137.00302147638502
  279  70  N  170.90852282812074  34.99156796894576  127.31089810309575
  280  71  N  33.907638564997015  157.7892261575679  147.87697881084813
  281  72  N  66.78900895568185  5.6866851929655695  98.57566718656034
  282  73  N  51.115563330118555  42.320889779146825  165.44793423477185
  283  74  N  153.6028221466914  50.767736082895595  168.57785099802084
  284  75  N  159.1823320546659  174.53961398113736  130.68057235636746
  285  76  N  181.18841145432748  107.16634028800551  42.05963917613788
  286  77  N  68.34669300698123  151.0616065656457  20.057642695871678
  287  78  N  164.44630125990136  167.73112176164028  64.51522299875772
  288  79  N  24.035236171456674  59.96723853906187  151.2516601319924
  289  80  N  173.75149907542936  33.059068307734975  91.07654504698725
  290  81  N  33.783561515908275  157.43579587154568  51.869836618970076
  291  82  N  55.063101323199135  10.771445603992973  95.64796395812893
  292  83  N  79.29089807454412  182.19325156968176  46.93963349312323
  293  84  N  39.92774151223908  24.803617597972647  72.85542717544246
  294  85  N  135.53091950269624  138.73640009410133  14.929176170424768
  295  86  N  82.56941757090553  183.7339637943509  151.81503742610707
  296  87  N  102.82006002896912  26.890057705455845  168.16878757262327
  297  88  N  76.97368563557374  57.29016764739235  12.560540559752056
  298  89  N  175.46934980672148  149.0584137910165  56.43798356296956
  299  90  N  107.10274026515023  121.604152590414  197.37972926423612
  300  91  N  113.216180922334  50.098974167385556  14.354100024105762
  301  92  N  156.8944602282753  20.726027239239812  78.1217542280134
  302  93  N  186.9464052063479  52.697195742913095  114.23963943045179
  303  94  N  199.41908870260994  107.4549378032994  92.23670792179504
  304  95  N  60.440369553855334  74.2234761612523  188.15104342975718
  305  96  N  41.41141483854079  166.52272339074364  146.28287978785514
  306  97  N  121.35121857005339  164.06688304336183  173.75337255124003
  307  98  N  35.69615415397578  163.15857657319134  143.31292664619974
  308  99  N  33.11820498365064  174.08078703223282  106.23397851103019
  309  100  N  93.44051618944316  151.60819874120006  185.40238284045614
  310  101  N  99.44144338230879  198.14832442586916  119.14665576280012
  311  102  N  47.95391034245491  72.13022507505083  19.28767010554428
  312  103  N  100.47053364090144  30.50827779221092  28.092565456079214
  313  104  N  119.98687489684798  149.766912702986  184.4024835645914
  314  105  N  19.100266048620668  113.5673100464102  42.80593435765718
  315  106  N  179.36840540302072  160.28259558396056  91.83514277881035
  316  107  N  26.967392592943426  158.35185267326236  64.48522075354222
  317  108  N  98.01053939411506  128.23064233874052  195.91179739552243
  318  109  N  139.7065996623304  25.119653783880565  46.930991211352854
  319  110  N  96.40278142545871  0.1561355601011627  104.2734941481275
  320  111  N  117.8652319098644  121.85905124066156  195.93234786903162
  321  112  N  142.74249427339248  10.383517276951096  111.91491534332027
  322  113  N  135.8339415079857  175.23312438634923  44.719753699261034
  323  114  N  161.42317515987276  25.945050484307274  127.25909032795835
  324  115  N  194.36318316738064  86.98782208061347  69.56526838768573
  325  116  N  185.68229932297703  48.449504982893444  101.04405278556304
  326  117  N  8.946525585324409  119.63859439279194  136.38118204912286
  327  118  N  184.34569413787773  49.59096426056142  81.4330132703343
  328  119  N  66.69334728382992  110.70254565052076  193.68096072011087
  329  120  N  182.61459730538792  60.98331815591149  59.34871650309474
  330  121  N  121.61092508216537  142.91796567867738  12.301561364543616
  331  122  N  47.08949409641052  17.344137426421426  80.80399137206084
  332  123  N  95.52932000530866  114.45577852240568  1.1514113014443552
  333  124  N  190.66391216794358  101.44189972169585  142.1660521699149
  334  125  N  159.060251245131  45.07635438247681  40.879107965603865
  335  126  N  98.77444412247473  4.559865674116708  129.82748351182875
  336  127  N  33.627025101780504  155.744726597526  149.87137114344662
  337  128  N  82.57929594356546  60.42382491649009  9.832126364555464
  338  129  N  4.085673239458444  72.2162535777655  94.66095918567476
  339  130  N  160.9152597450118  92.09367073219481  21.08979097919716
  340  131  N  103.12758818473993  108.38906563728042  199.5984024464252
  341  132  N  157.17567040284038  123.77302318527175  178.52251958908536
  342  133  N  15.413715747269052  138.79075709401184  63.388011794091675
  343  134  N  6.4933493988680056  112.65781601213082  66.88979028817747
  344  135  N  144.30465886076848  30.499222434452108  156.62807714389714
  345  136  N  108.75244389269008  100.17819351708592  0.38392211607715865
  346  137  N  113.42125732004138  134.03327105120064  193.0677512004279
  347  138  N  78.37992154409045  44.57263329966136  19.623515701254348
  348  139  N  131.66143768122154  17.68349671087796  147.13328601116288
  349  140  N  62.99945111628271  169.24909161556343  38.06840311502576
  350  141  N  29.21332928910317  38.302216035896926  134.3893981277068
  351  142  N  90.63294355993054  160.49469415619203  179.07370127038027
  352  143  N  126.76544739592123  23.476399380053124  158.54698432758977
  353  144  N  103.67349880944008  66.48257855682644  5.8560258630552084
  354  145  N  97.66265621590088  199.97268035197618  99.99730249622525
  355  146  N  3.6107789630083005  91.3425123444438  125.18265227047874
  356  147  N  69.69383499679687  182.9388478078956  146.93275921035706
  357  148  N  193.42282243029982  110.7432631913417  134.01115324651948
  358  149  N  82.14640939291937  136.16333014534413  8.493372615784779
  359  150  N  37.28509469490684  142.00639300051807  34.408052326072635
  360  151  N  87.32645569872832  185.32716598265  49.416840547342254
  361  152  N  158.36198390743976  179.5894187706551  83.89399943694792
  362  153  N  183.0083191491252  155.74570019209463  101.42683640620416
  363  154  N  30.527784795659883  80.05617017893027  169.1075608502432
  364  155  N  57.905998327607854  9.629223022183794  92.17582645703374
  365  156  N  71.5254406506534  6.077782483382549  80.8214566084456
  366  157  N  37.15814727151435  68.26389175840335  28.980840758785504
  367  158  N  90.97595473286702  91.9180745026679  0.7364664780045871
  368  159  N  166.67182286987017  63.915059984246675  34.78692508960998
  369  160  N  61.92517520165166  60.81478912115253  183.75456384553223
  370  161  N  155.19964554229762  180.7766412318769  120.69138379377631
  371  162  N  29.419634449110106  52.78478896801127  47.187730157590025
  372  163  N  44.098198232443714  79.53834426567288  19.6488381929003
  373  164  N  87.76814136973026  156.71667476375004  181.44691791708325
  374  165  N  77.05382193756955  185.25017482794385  53.03319678611022
  375  166  N  36.10576196871966  111.55525941714001  23.947371339284487
  376  167  N  2.6708686881004695  117.6276127266899  114.70739499805656
  377  168  N  84.47688352727832  12.408725214150394  54.31847817372864
  378  169  N  117.86061035885469  62.41156322562572  190.92913734589172
  379  170  N  161.11476116784706  82.83080332472981  177.26709942092367
  380  171  N  182.47251686456875  156.42683462525787  96.21895567372906
  381  172  N  83.87233880849689  1.4894077474883147  94.03663194566452
  382  173  N  76.94942989290796  39.684821675335265  23.640649024484702
  383  174  N  9.540644593605577  61.36562882523106  81.98638338950774
  384  175  N  153.95719889095955  123.78999273047518  180.76296758865027
  385  176  N  189.76700483693944  57.98916823517691  86.69681026848741
  386  177  N  184.3275605780292  145.7164784921436  71.73578019410068
  387  178  N  168.54485502912718  171.7793705606287  87.78014685211431
  388  179  N  154.44861829396038  157.69285531835388  39.11582790992316
  389  180  N  17.39073128447606  155.51134175700506  90.29434913963289
  390  181  N  163.47567592237004  147.18253581124964  161.19351992342325
  391  182  N  39.97902974460464  33.04273860790602  56.2483340149001
  392  183  N  88.39339375573229  193.43742151420284  133.68582717208696
  393  184  N  113.54003827542492  2.4754963052754277  82.51747894044797
  394  185  N  198.78062432810435  95.45598935598741  85.10905561701951
  395  186  N  120.00934441035083  105.03848271226967  197.84804458049288
  396  187  N  44.07603077553408  17.15762247209348  96.89353066894296
  397  188  N  41.44660258480353  78.18568968889147  21.925448981190243
  398  189  N  15.970823369229436  144.66363792513422  130.72876375722382
  399  190  N  158.99173418329212  180.70320165544922  102.63979934989506
  400  191  N  170.53042450556808  169.0288154536791  83.86054969565936
  401  192  N  96.77772681181708  137.00366223846515  7.154181911933662
  402  193  N  45.450926736610874  18.2028555161681  118.26542527280796
  403  194  N  152.519658109373  159.47605592245893  160.86283171183467
  404  195  N  78.48989641668842  197.44195477095582  93.48993899796571
  405  196  N  42.52899896609035  180.29305772186652  115.81483233655568
  406  197  N  76.50222768638062  99.70602675638801  2.8003689511665755
  407  198  N  146.33101516776844  33.47241096190105  158.54499919123603
  408  199  N  146.35916127799405  34.792626973442424  159.99022144130083
  409  200  N  27.994414968194363  163.13795451829833  128.78878989246857
  410  201  N  156.11308272943086  46.10025106151515  37.18169843932145
  411  202  N  192.73399622694876  84.92871407730718  65.7470835633417
  412  203  N  190.82910939665427  90.32891345570869  59.299349252580264
  413  204  N  128.38087580760103  40.965563295999026  175.56097651191936
  414  205  N  26.409342017802913  81.80303729477941  165.21721863167812
  415  206  N  143.69992175784222  101.01547824730878  189.9404560933939
  416  207  N  83.85062803559944  5.336580786187142  72.1067239660638
  417  208  N  14.393261036623144  105.44014231242653  48.60067027988789
  418  209  N  0.7653561070248003  88.26430419358397  96.158269221605
  419  210  N  165.91688199767225  154.9947302163178  151.2888322750614
  420  211  N  182.87689583673603  86.9315677483943  45.58827134751188
  421  212  N  12.79266979261385  76.39066910199759  57.134150508259566
  422  213  N  94.73191690431742  7.787502661609679  138.32887469146914
  423  214  N  34.97425389823066  36.472255251301384  58.33613086795192
  424  215  N  168.64172559025658  108.74573475202786  27.807025053409205
  425  216  N  46.043433667050344  75.4821119721683  19.454595933643034
  426  217  N  95.1056281490307  164.20291567129257  176.5116379610928
  427  218  N  51.72891827325449  166.9265152954237  156.48667293566925
  428  219  N  50.78615167261826  176.64973490430253  141.26518232008203
  429  220  N  20.88639704880697  79.8315330885899  42.25685520752843
  430  221  N  20.0362304146594  155.96498772340578  121.7650109768316
  431  222  N  199.79101155148658  104.58772318309983  95.44952645032191
  432  223  N  105.49469560082649  176.06140319033585  35.312510753844975
  433  224  N  150.64445108448405  117.40813309028309  184.45174051884482
  434  225  N  128.82898162310292  194.51354368160037  84.63510887376627
  435  226  N  156.1115098507776  19.359802081554662  118.67235769633962
  436  227  N  143.3443048467207  175.08490792628504  50.164993839111
  437  228  N  55.47471239816797  55.83495811579846  177.8906145780149
  438  229  N  162.25494574869055  51.8998990829317  38.26911614438491
  439  230  N  100.30918027694767  76.74843690467178  197.25877452024736
  440  231  N  36.55258745325314  116.26629857074315  175.5634393865866
  441  232  N  75.81792764029976  2.973670875315676  101.05774901496267
  442  233  N  117.8292319943377  79.00593052707  3.8679682236047057
  443  234  N  70.9695818739882  8.026408626442702  126.42145554807364
  444  235  N  11.510259223994325  132.05066679459017  133.79823272624583
  445  236  N  104.08266198998705  191.18712719167135  59.15590978359946
  446  237  N  147.39416824787364  113.58858144873204  187.000823388652
  447  238  N  115.21348865642835  83.57483399985813  197.46160107841706
  448  239  N  159.93673903005256  125.67359014630414  175.81856028336972
  449  240  N  55.27855491162301  172.97367066582774  48.281185833754925
  450  241  N  11.5563814498787  61.1978265839874  125.92523241852086
  451  242  N  88.0334637231372  191.50249059477767  61.476030520114456
  452  243  N  140.0160481185236  189.4829447850266  119.78682606119239
  453  244  N  134.88865335010007  191.82261243955202  118.74539175883979
  454  245  N  168.2411497417906  52.425692177494696  155.49622254827818
  455  246  N  157.63711266810265  120.141016783159  20.802129534785166
  456  247  N  71.3317310820582  58.27941876363117  186.24107755906186
  457  248  N  55.78200414010829  185.24026384898352  127.90817552421285
  458  249  N  39.23802649897085  20.628920310910544  102.86605743983647
  459  250  N  122.55648319381834  112.54660856595586  196.61152974370953
  460  251  N  116.97125074501683  20.06719193421347  42.356935865033186
  461  252  N  120.25706950236733  58.89766451840853  11.116654242006803
  462  253  N  8.238772611910704  100.19519969111097  60.252810850175045
  463  254  N  110.5817719407334  25.538432586450128  165.90524319742457
  464  255  N  166.08055604365126  59.02087217869386  162.88140580463286
  465  256  N  117.4173121670537  11.835980780679776  143.86049420572846
  466  257  N  75.17203054640433  188.49369102621478  60.59900278713555
  467  258  N  182.25218221101227  121.55634295612637  47.370135855350206
  468  259  N  118.05588275800399  60.79548712154992  190.20527294893938
  469  260  N  2.0139488803079786  110.4125925050406  117.03853583184527
  470  261  N  40.68217339306179  33.693451399276555  54.339984020051915
  471  262  N  114.97545312919274  32.10821403780477  28.122039522265098
  472  263  N  147.8625016860427  65.53116115629682  180.75320477306383
  473  264  N  75.00621724559274  190.8632067169264  133.45427459597036
  474  265  N  90.05779304070401  139.44089302023266  191.35408298781772
  475  266  N  137.26922895950628  176.45638527690443  47.412684769485956
  476  267  N  136.5411358332053  10.270967507615168  124.76784447625162
  477  268  N  158.05141272177661  152.31615942313323  37.605665768282606
  478  269  N  117.78927112712768  1.7107012501866024  104.77028133714093
  479  270  N  46.73333302701483  101.01418981032703  184.62643563696702
  480  271  N  159.65120331881437  142.9293641972642  32.18552048245063
  481  272  N  162.69328958039497  22.536336115804318  108.302542937263
  482  273  N  37.29404650490793  36.86972630590513  145.63476678564297
  483  274  N  43.90242396024472  109.2026178178981  182.27012694630767
  484  275  N  134.49400131561043  27.82969395889498  160.01342182522095
  485  276  N  7.083672075253844  71.92737153708413  124.05168468453141
  486  277  N  183.76059955454326  47.672106591905475  115.68290578096246
  487  278  N  70.90377831800993  138.10580422632927  12.242621004857043
  488  279  N  153.50374494469625  27.059241242361153  142.62622419066486
  489  280  N  134.5003378443098  188.70472523836486  130.67895710441735
  490  281  N  156.6741827349822  141.38220843967525  28.75710676862488
  491  282  N  78.11234879600772  5.675510736556774  75.02358212307142
  492  283  N  96.18104971280466  3.106053449368858  75.56685160386884
  493  284  N  175.4798063190759  157.907729070021  130.81385649326995
  494  285  N  50.23327569706231  29.85995323597922  48.97405569618167
  495  286  N  63.77808952174244  160.203737102958  171.15815652574912